<event>
 8    1  0.3551276E-004  0.1605202E+03  0.7546771E-02  0.1196320E+00
         -1   -1    0    0    0  501 -0.00000000000E+00  0.00000000000E+00  0.14145252362E+03  0.14145252362E+03  0.00000000000E+00 0.  1.
          1   -1    0    0  501    0  0.00000000000E+00 -0.00000000000E+00 -0.15773759183E+03  0.15773759183E+03  0.00000000000E+00 0. -1.
         25    2    1    2    0    0  0.51320130176E+01 -0.10057258325E+03 -0.33877706527E+02  0.16405620758E+03  0.12500223273E+03 0.  0.
         23    2    1    2    0    0 -0.51320130176E+01  0.10057258325E+03  0.17592638318E+02  0.13513390787E+03  0.88376977054E+02 0.  0.
          5    1    4    4  502    0  0.17934018333E+02  0.52264301977E+02 -0.30263300090E+02  0.63175498471E+02  0.47000000000E+01 0. -1.
         -5    1    4    4    0  502 -0.23066031351E+02  0.48308281273E+02  0.47855938409E+02  0.71958409396E+02  0.47000000000E+01 0.  1.
          5    1    3    3  503    0  0.10975235228E+02 -0.31548714409E+02 -0.75789089876E+02  0.82956936499E+02  0.47000000000E+01 0.  1.
         -5    1    3    3    0  503 -0.58432222102E+01 -0.69023868842E+02  0.41911383348E+02  0.81099271081E+02  0.47000000000E+01 0.  1.
<mgrwt>
<rscale>  0 0.15343005E+03</rscale>
<asrwt>0</asrwt>
<pdfrwt beam="1">  1        1 0.24267322E-01 0.16052022E+03</pdfrwt>
<pdfrwt beam="2">  1       -1 0.21761927E-01 0.16052022E+03</pdfrwt>
<totfact> 0.33902730E+03</totfact>
</mgrwt>
</event>
<event>
 8    1  0.3551276E-004  0.1418622E+03  0.7546771E-02  0.1221194E+00
         -2   -1    0    0    0  501 -0.00000000000E+00  0.00000000000E+00  0.23607469584E+02  0.23607469584E+02  0.00000000000E+00 0.  1.
          2   -1    0    0  501    0  0.00000000000E+00 -0.00000000000E+00 -0.70417703820E+03  0.70417703820E+03  0.00000000000E+00 0. -1.
         25    2    1    2    0    0 -0.55185472555E+02 -0.38134362759E+02 -0.33163919976E+03  0.36070685324E+03  0.12500083662E+03 0.  0.
         23    2    1    2    0    0  0.55185472555E+02  0.38134362759E+02 -0.34893036886E+03  0.36707765454E+03  0.92162552857E+02 0.  0.
          5    1    3    3  502    0 -0.34886622340E+01 -0.60315193639E+02 -0.67963556809E+02  0.91056182668E+02  0.47000000000E+01 0. -1.
         -5    1    3    3    0  502 -0.51696810321E+02  0.22180830881E+02 -0.26367564295E+03  0.26965067058E+03  0.47000000000E+01 0. -1.
          5    1    4    4  503    0  0.25637390136E+02  0.44267860759E+02 -0.32286232794E+03  0.32692367928E+03  0.47000000000E+01 0. -1.
         -5    1    4    4    0  503  0.29548082419E+02 -0.61334979998E+01 -0.26068040917E+02  0.40153975265E+02  0.47000000000E+01 0.  1.
<mgrwt>
<rscale>  0 0.13431241E+03</rscale>
<asrwt>0</asrwt>
<pdfrwt beam="1">  1        2 0.10833492E+00 0.14186217E+03</pdfrwt>
<pdfrwt beam="2">  1       -2 0.36319187E-02 0.14186217E+03</pdfrwt>
<totfact> 0.12664881E+04</totfact>
</mgrwt>
</event>
<event>
 8    1  0.3551276E-004  0.1255179E+03  0.7546771E-02  0.1250112E+00
         -1   -1    0    0    0  501 -0.00000000000E+00  0.00000000000E+00  0.46093120311E+03  0.46093120311E+03  0.00000000000E+00 0.  1.
          1   -1    0    0  501    0  0.00000000000E+00 -0.00000000000E+00 -0.34657720286E+02  0.34657720286E+02  0.00000000000E+00 0. -1.
         25    2    1    2    0    0 -0.52592941045E+01 -0.10191521113E+02  0.36458713891E+03  0.38558853172E+03  0.12499282642E+03 0.  0.
         23    2    1    2    0    0  0.52592941045E+01  0.10191521113E+02  0.61686343909E+02  0.11000039168E+03  0.90351280382E+02 0.  0.
          5    1    3    3  502    0 -0.21879005034E+02 -0.40441380523E+02  0.33957321498E+03  0.34270432511E+03  0.47000000000E+01 0. -1.
         -5    1    3    3    0  502  0.16619710929E+02  0.30249859410E+02  0.25013923935E+02  0.42884206607E+02  0.47000000000E+01 0. -1.
          5    1    4    4  503    0  0.39054346135E+02 -0.15879543552E+02  0.11501827427E+02  0.43952063542E+02  0.47000000000E+01 0. -1.
         -5    1    4    4    0  503 -0.33795052031E+02  0.26071064665E+02  0.50184516483E+02  0.66048328133E+02  0.47000000000E+01 0.  1.
<mgrwt>
<rscale>  0 0.11584583E+03</rscale>
<asrwt>0</asrwt>
<pdfrwt beam="1">  1        1 0.53319573E-02 0.12551786E+03</pdfrwt>
<pdfrwt beam="2">  1       -1 0.70912488E-01 0.12551786E+03</pdfrwt>
<totfact> 0.30494477E+03</totfact>
</mgrwt>
</event>
<event>
 8    1  0.3551276E-004  0.1409766E+03  0.7546771E-02  0.1222498E+00
         -1   -1    0    0    0  501 -0.00000000000E+00  0.00000000000E+00  0.13534199441E+03  0.13534199441E+03  0.00000000000E+00 0.  1.
          1   -1    0    0  501    0  0.00000000000E+00 -0.00000000000E+00 -0.12181771151E+03  0.12181771151E+03  0.00000000000E+00 0. -1.
         25    2    1    2    0    0 -0.64968665278E+02  0.54862691213E+01 -0.11343848787E+02  0.14143223977E+03  0.12499347553E+03 0.  0.
         23    2    1    2    0    0  0.64968665278E+02 -0.54862691213E+01  0.24868131684E+02  0.11572746615E+03  0.92322239089E+02 0.  0.
          5    1    3    3  502    0 -0.81673086185E+02 -0.31616037479E+02 -0.34655143119E+02  0.94303423996E+02  0.47000000000E+01 0.  1.
         -5    1    3    3    0  502  0.16704420907E+02  0.37102306600E+02  0.23311294332E+02  0.47128815775E+02  0.47000000000E+01 0.  1.
          5    1    4    4  503    0  0.29412914704E+02  0.42776268907E+02  0.48365490749E+01  0.52348934468E+02  0.47000000000E+01 0. -1.
         -5    1    4    4    0  503  0.35555750574E+02 -0.48262538029E+02  0.20031582609E+02  0.63378531678E+02  0.47000000000E+01 0.  1.
<mgrwt>
<rscale>  0 0.13339909E+03</rscale>
<asrwt>0</asrwt>
<pdfrwt beam="1">  1        1 0.18741186E-01 0.14097658E+03</pdfrwt>
<pdfrwt beam="2">  1       -1 0.20821845E-01 0.14097658E+03</pdfrwt>
<totfact> 0.50199840E+03</totfact>
</mgrwt>
</event>
<event>
 8    1  0.3551276E-004  0.1751000E+03  0.7546771E-02  0.1179059E+00
         -3   -1    0    0    0  501 -0.00000000000E+00  0.00000000000E+00  0.94052668132E+02  0.94052668132E+02  0.00000000000E+00 0.  1.
          3   -1    0    0  501    0  0.00000000000E+00 -0.00000000000E+00 -0.38568060474E+03  0.38568060474E+03  0.00000000000E+00 0. -1.
         25    2    1    2    0    0  0.11890680324E+03 -0.29920907850E+02 -0.30268997438E+02  0.17769698510E+03  0.12500367085E+03 0.  0.
         23    2    1    2    0    0 -0.11890680324E+03  0.29920907850E+02 -0.26135893917E+03  0.30203628777E+03  0.88788149336E+02 0.  0.
          5    1    3    3  502    0  0.20800355853E+02  0.62663702151E+01  0.44038810869E+02  0.49329798925E+02  0.47000000000E+01 0. -1.
         -5    1    4    4    0  503 -0.19862946005E+02 -0.14997241928E+02 -0.84586208361E+01  0.26703785423E+02  0.47000000000E+01 0.  1.
          5    1    4    4  503    0 -0.99043857231E+02  0.44918149778E+02 -0.25290031833E+03  0.27533250234E+03  0.47000000000E+01 0. -1.
         -5    1    3    3    0  502  0.98106447383E+02 -0.36187278065E+02 -0.74307808306E+02  0.12836718618E+03  0.47000000000E+01 0. -1.
<mgrwt>
<rscale>  0 0.16884388E+03</rscale>
<asrwt>0</asrwt>
<pdfrwt beam="1">  1        3 0.59335477E-01 0.17509999E+03</pdfrwt>
<pdfrwt beam="2">  1       -3 0.14469641E-01 0.17509999E+03</pdfrwt>
<totfact> 0.26780370E+02</totfact>
</mgrwt>
</event>
<event>
 8    1  0.3551276E-004  0.1317200E+03  0.7546771E-02  0.1238277E+00
         -1   -1    0    0    0  501 -0.00000000000E+00  0.00000000000E+00  0.50090009446E+02  0.50090009446E+02  0.00000000000E+00 0. -1.
          1   -1    0    0  501    0  0.00000000000E+00 -0.00000000000E+00 -0.36610568287E+03  0.36610568287E+03  0.00000000000E+00 0.  1.
         25    2    1    2    0    0  0.22374296459E+02  0.34989112760E+02 -0.66894903595E+02  0.14773313647E+03  0.12500121731E+03 0.  0.
         23    2    1    2    0    0 -0.22374296459E+02 -0.34989112760E+02 -0.24912076983E+03  0.26846255585E+03  0.91028230669E+02 0.  0.
          5    1    4    4  502    0 -0.32490178421E+02 -0.52769817370E+02 -0.99061865039E+02  0.11694275704E+03  0.47000000000E+01 0. -1.
         -5    1    4    4    0  502  0.10115881962E+02  0.17780704609E+02 -0.15005890479E+03  0.15151979881E+03  0.47000000000E+01 0.  1.
          5    1    3    3  503    0  0.51956915299E+02  0.30699211281E+02  0.13338283341E+02  0.61983565750E+02  0.47000000000E+01 0.  1.
         -5    1    3    3    0  503 -0.29582618840E+02  0.42899014797E+01 -0.80233186936E+02  0.85749570716E+02  0.47000000000E+01 0.  1.
<mgrwt>
<rscale>  0 0.12296976E+03</rscale>
<asrwt>0</asrwt>
<pdfrwt beam="1">  1        1 0.56323951E-01 0.13171997E+03</pdfrwt>
<pdfrwt beam="2">  1       -1 0.77061554E-02 0.13171997E+03</pdfrwt>
<totfact> 0.59205777E+03</totfact>
</mgrwt>
</event>
<event>
 8    1  0.3551276E-004  0.1804984E+03  0.7546771E-02  0.1172833E+00
          3   -1    0    0  501    0  0.00000000000E+00  0.00000000000E+00  0.15327944513E+03  0.15327944513E+03  0.00000000000E+00 0. -1.
         -3   -1    0    0    0  501 -0.00000000000E+00 -0.00000000000E+00 -0.19415357077E+03  0.19415357077E+03  0.00000000000E+00 0.  1.
         25    2    1    2    0    0 -0.93469818263E+02 -0.90664766720E+02  0.88693690205E+01  0.18071621660E+03  0.12499191328E+03 0.  0.
         23    2    1    2    0    0  0.93469818263E+02  0.90664766720E+02 -0.49743494662E+02  0.16671679930E+03  0.91451457379E+02 0.  0.
          5    1    4    4  502    0  0.22279883088E+02 -0.10373152132E+02  0.12810399617E+02  0.28110350655E+02  0.47000000000E+01 0. -1.
         -5    1    4    4    0  502  0.71189935174E+02  0.10103791885E+03 -0.62553894279E+02  0.13860644864E+03  0.47000000000E+01 0.  1.
          5    1    3    3  503    0 -0.91375305575E+02 -0.62268986338E+01 -0.14749747941E+02  0.92886305771E+02  0.47000000000E+01 0. -1.
         -5    1    3    3    0  503 -0.20945126880E+01 -0.84437868086E+02  0.23619116962E+02  0.87829910830E+02  0.47000000000E+01 0. -1.
<mgrwt>
<rscale>  0 0.17489935E+03</rscale>
<asrwt>0</asrwt>
<pdfrwt beam="1">  1        3 0.23581453E-01 0.18049844E+03</pdfrwt>
<pdfrwt beam="2">  1       -3 0.29869780E-01 0.18049844E+03</pdfrwt>
<totfact> 0.43594180E+02</totfact>
</mgrwt>
</event>
<event>
 8    1  0.3551276E-004  0.1416446E+03  0.7546771E-02  0.1221162E+00
          1   -1    0    0  501    0  0.00000000000E+00  0.00000000000E+00  0.74383018094E+03  0.74383018094E+03  0.00000000000E+00 0. -1.
         -1   -1    0    0    0  501 -0.00000000000E+00 -0.00000000000E+00 -0.27638989579E+02  0.27638989579E+02  0.00000000000E+00 0.  1.
         25    2    1    2    0    0 -0.22687706536E+02 -0.62639621710E+02  0.21586119916E+03  0.25818450855E+03  0.12499891567E+03 0.  0.
         23    2    1    2    0    0  0.22687706536E+02  0.62639621710E+02  0.50032999221E+03  0.51328466197E+03  0.93234054266E+02 0.  0.
          5    1    3    3  502    0  0.36075129071E+02  0.18733700223E+02  0.55782852914E+02  0.69182245849E+02  0.47000000000E+01 0.  1.
         -5    1    4    4    0  503 -0.27444641175E+01 -0.23286137536E+02  0.80753313099E+02  0.84219735579E+02  0.47000000000E+01 0.  1.
          5    1    4    4  503    0  0.25432170653E+02  0.85925759246E+02  0.41957667911E+03  0.42906492639E+03  0.47000000000E+01 0. -1.
         -5    1    3    3    0  502 -0.58762835606E+02 -0.81373321933E+02  0.16007834624E+03  0.18900226270E+03  0.47000000000E+01 0.  1.
<mgrwt>
<rscale>  0 0.13433443E+03</rscale>
<asrwt>0</asrwt>
<pdfrwt beam="1">  1        1 0.11443540E+00 0.14164457E+03</pdfrwt>
<pdfrwt beam="2">  1       -1 0.42521528E-02 0.14164457E+03</pdfrwt>
<totfact> 0.56102031E+03</totfact>
</mgrwt>
</event>
<event>
 8    1  0.3551276E-004  0.1532148E+03  0.7546771E-02  0.1203227E+00
          2   -1    0    0  501    0  0.00000000000E+00  0.00000000000E+00  0.49542116029E+02  0.49542116029E+02  0.00000000000E+00 0. -1.
         -2   -1    0    0    0  501 -0.00000000000E+00 -0.00000000000E+00 -0.41357247564E+03  0.41357247564E+03  0.00000000000E+00 0.  1.
         25    2    1    2    0    0 -0.52382910101E+02  0.71454218041E+02 -0.18203825384E+03  0.23793425469E+03  0.12500043660E+03 0.  0.
         23    2    1    2    0    0  0.52382910101E+02 -0.71454218041E+02 -0.18199210577E+03  0.22518033697E+03  0.98668044723E+02 0.  0.
          5    1    3    3  502    0 -0.23169067744E+02 -0.11142749450E+02 -0.13669851724E+03  0.13917449903E+03  0.47000000000E+01 0. -1.
         -5    1    4    4    0  503 -0.17633276847E+02  0.11662659030E+02 -0.16890245343E+02  0.27464894971E+02  0.47000000000E+01 0.  1.
          5    1    4    4  503    0  0.70016186948E+02 -0.83116877072E+02 -0.16510186043E+03  0.19771544200E+03  0.47000000000E+01 0. -1.
         -5    1    3    3    0  502 -0.29213842356E+02  0.82596967491E+02 -0.45339736602E+02  0.98759755666E+02  0.47000000000E+01 0. -1.
<mgrwt>
<rscale>  0 0.14778099E+03</rscale>
<asrwt>0</asrwt>
<pdfrwt beam="1">  1        2 0.76218641E-02 0.15321483E+03</pdfrwt>
<pdfrwt beam="2">  1       -2 0.63626534E-01 0.15321483E+03</pdfrwt>
<totfact> 0.20530394E+03</totfact>
</mgrwt>
</event>
<event>
 8    1  0.3551276E-004  0.1253173E+03  0.7546771E-02  0.1249455E+00
         -1   -1    0    0    0  501 -0.00000000000E+00  0.00000000000E+00  0.35412952452E+02  0.35412952452E+02  0.00000000000E+00 0.  1.
          1   -1    0    0  501    0  0.00000000000E+00 -0.00000000000E+00 -0.35831253633E+03  0.35831253633E+03  0.00000000000E+00 0. -1.
         25    2    1    2    0    0  0.60515484516E+01 -0.65198251614E+01 -0.13503894518E+03  0.18422793728E+03  0.12500114720E+03 0.  0.
         23    2    1    2    0    0 -0.60515484516E+01  0.65198251614E+01 -0.18786063870E+03  0.20949755150E+03  0.92295585767E+02 0.  0.
          5    1    4    4  502    0  0.37829608556E+02  0.24072764568E+02 -0.85671589219E+02  0.96810580397E+02  0.47000000000E+01 0. -1.
         -5    1    4    4    0  502 -0.43881157008E+02 -0.17552939407E+02 -0.10218904948E+03  0.11268697110E+03  0.47000000000E+01 0.  1.
          5    1    3    3  503    0 -0.45219199152E+02  0.29946059873E+02 -0.31260287730E+02  0.62776094676E+02  0.47000000000E+01 0. -1.
         -5    1    3    3    0  503  0.51270747603E+02 -0.36465885034E+02 -0.10377865745E+03  0.12145184261E+03  0.47000000000E+01 0. -1.
<mgrwt>
<rscale>  0 0.11622655E+03</rscale>
<asrwt>0</asrwt>
<pdfrwt beam="1">  1        1 0.55125005E-01 0.12531726E+03</pdfrwt>
<pdfrwt beam="2">  1       -1 0.54481466E-02 0.12531726E+03</pdfrwt>
<totfact> 0.10168449E+04</totfact>
</mgrwt>
</event>
<event>
 8    1  0.3551276E-004  0.1637805E+03  0.7546771E-02  0.1191428E+00
          1   -1    0    0  501    0  0.00000000000E+00  0.00000000000E+00  0.46939322966E+02  0.46939322966E+02  0.00000000000E+00 0. -1.
         -1   -1    0    0    0  501 -0.00000000000E+00 -0.00000000000E+00 -0.50184989912E+03  0.50184989912E+03  0.00000000000E+00 0.  1.
         25    2    1    2    0    0  0.10555004118E+03  0.79051832061E+01 -0.20810548113E+03  0.26482434528E+03  0.12498295670E+03 0.  0.
         23    2    1    2    0    0 -0.10555004118E+03 -0.79051832061E+01 -0.24680509502E+03  0.28396487680E+03  0.92303809305E+02 0.  0.
          5    1    3    3  502    0 -0.19804025197E+02 -0.20458479134E+02 -0.71998686704E+02  0.77567065624E+02  0.47000000000E+01 0. -1.
         -5    1    4    4    0  503 -0.37735982073E+02  0.79579436668E+01 -0.19010692670E+03  0.19403625123E+03  0.47000000000E+01 0.  1.
          5    1    4    4  503    0 -0.67814059103E+02 -0.15863126873E+02 -0.56698168323E+02  0.89928625573E+02  0.47000000000E+01 0. -1.
         -5    1    3    3    0  502  0.12535406637E+03  0.28363662340E+02 -0.13610679442E+03  0.18725727966E+03  0.47000000000E+01 0. -1.
<mgrwt>
<rscale>  0 0.15760465E+03</rscale>
<asrwt>0</asrwt>
<pdfrwt beam="1">  1        1 0.72214344E-02 0.16378047E+03</pdfrwt>
<pdfrwt beam="2">  1       -1 0.77207676E-01 0.16378047E+03</pdfrwt>
<totfact> 0.17249210E+03</totfact>
</mgrwt>
</event>
<event>
 8    1  0.3551276E-004  0.1314122E+03  0.7546771E-02  0.1238336E+00
         -1   -1    0    0    0  501 -0.00000000000E+00  0.00000000000E+00  0.93683013020E+02  0.93683013020E+02  0.00000000000E+00 0.  1.
          1   -1    0    0  501    0  0.00000000000E+00 -0.00000000000E+00 -0.14864268220E+03  0.14864268220E+03  0.00000000000E+00 0. -1.
         25    2    1    2    0    0  0.30058981341E+02  0.27217549678E+02 -0.90865683149E+01  0.13172599005E+03  0.12499933345E+03 0.  0.
         23    2    1    2    0    0 -0.30058981341E+02 -0.27217549678E+02 -0.45873100868E+02  0.11059970517E+03  0.92106547165E+02 0.  0.
          5    1    3    3  502    0  0.77736406618E+02  0.63416790793E+01 -0.13448412533E+02  0.79285027635E+02  0.47000000000E+01 0.  1.
         -5    1    3    3    0  502 -0.47677425278E+02  0.20875870598E+02  0.43618442184E+01  0.52440962418E+02  0.47000000000E+01 0.  1.
          5    1    4    4  503    0 -0.32515535802E+02 -0.40810564633E+01 -0.69578592997E+02  0.77053135522E+02  0.47000000000E+01 0. -1.
         -5    1    4    4    0  503  0.24565544616E+01 -0.23136493214E+02  0.23705492129E+02  0.33546569648E+02  0.47000000000E+01 0.  1.
<mgrwt>
<rscale>  0 0.12293259E+03</rscale>
<asrwt>0</asrwt>
<pdfrwt beam="1">  1        1 0.22868105E-01 0.13141222E+03</pdfrwt>
<pdfrwt beam="2">  1       -1 0.14412771E-01 0.13141222E+03</pdfrwt>
<totfact> 0.69570522E+03</totfact>
</mgrwt>
</event>
<event>
 8    1  0.3551276E-004  0.2080866E+03  0.7546771E-02  0.1146941E+00
         -1   -1    0    0    0  501 -0.00000000000E+00  0.00000000000E+00  0.63865827234E+02  0.63865827234E+02  0.00000000000E+00 0.  1.
          1   -1    0    0  501    0  0.00000000000E+00 -0.00000000000E+00 -0.62074078490E+03  0.62074078490E+03  0.00000000000E+00 0. -1.
         25    2    1    2    0    0  0.78139807927E+02 -0.14685801222E+03 -0.30544420881E+03  0.36958924291E+03  0.12500775353E+03 0.  0.
         23    2    1    2    0    0 -0.78139807927E+02  0.14685801222E+03 -0.25143074885E+03  0.31501736922E+03  0.91353249015E+02 0.  0.
          5    1    4    4  502    0 -0.30007342636E+02  0.13119521159E+03 -0.15013049277E+03  0.20167766117E+03  0.47000000000E+01 0. -1.
         -5    1    4    4    0  502 -0.48132465291E+02  0.15662800635E+02 -0.10130025608E+03  0.11333970805E+03  0.47000000000E+01 0.  1.
          5    1    3    3  503    0  0.67542689679E+02 -0.34681841232E+02 -0.20466963809E+03  0.21834970986E+03  0.47000000000E+01 0. -1.
         -5    1    3    3    0  503  0.10597118248E+02 -0.11217617099E+03 -0.10077457072E+03  0.15123953305E+03  0.47000000000E+01 0. -1.
<mgrwt>
<rscale>  0 0.20335219E+03</rscale>
<asrwt>0</asrwt>
<pdfrwt beam="1">  1        1 0.95498579E-01 0.20808663E+03</pdfrwt>
<pdfrwt beam="2">  1       -1 0.98255123E-02 0.20808663E+03</pdfrwt>
<totfact> 0.20872805E+03</totfact>
</mgrwt>
</event>
<event>
 8    1  0.3551276E-004  0.1513896E+03  0.7546771E-02  0.1208244E+00
          1   -1    0    0  501    0  0.00000000000E+00  0.00000000000E+00  0.66921112472E+03  0.66921112472E+03  0.00000000000E+00 0.  1.
         -1   -1    0    0    0  501 -0.00000000000E+00 -0.00000000000E+00 -0.28895326940E+02  0.28895326940E+02  0.00000000000E+00 0. -1.
         25    2    1    2    0    0 -0.60050967984E+02  0.60724430869E+02  0.40552963233E+03  0.43286613556E+03  0.12500093343E+03 0.  0.
         23    2    1    2    0    0  0.60050967984E+02 -0.60724430869E+02  0.23478616545E+03  0.26524031610E+03  0.89074724455E+02 0.  0.
          5    1    4    4  502    0  0.56764247404E+02 -0.10024050815E+02  0.60741507379E+02  0.83870627140E+02  0.47000000000E+01 0. -1.
         -5    1    3    3    0  503 -0.37121087224E+02  0.99379673568E+02  0.28670369408E+03  0.30573745737E+03  0.47000000000E+01 0.  1.
          5    1    3    3  503    0 -0.22929880759E+02 -0.38655242699E+02  0.11882593824E+03  0.12712867819E+03  0.47000000000E+01 0.  1.
         -5    1    4    4    0  502  0.32867205796E+01 -0.50700380054E+02  0.17404465807E+03  0.18136968896E+03  0.47000000000E+01 0.  1.
<mgrwt>
<rscale>  0 0.14384738E+03</rscale>
<asrwt>0</asrwt>
<pdfrwt beam="1">  1        1 0.10295555E+00 0.15138959E+03</pdfrwt>
<pdfrwt beam="2">  1       -1 0.44454354E-02 0.15138959E+03</pdfrwt>
<totfact> 0.61366196E+03</totfact>
</mgrwt>
</event>
<event>
 8    1  0.3551276E-004  0.1526750E+03  0.7546771E-02  0.1205390E+00
          1   -1    0    0  501    0  0.00000000000E+00  0.00000000000E+00  0.54014413246E+02  0.54014413246E+02  0.00000000000E+00 0. -1.
         -1   -1    0    0    0  501 -0.00000000000E+00 -0.00000000000E+00 -0.37285986936E+03  0.37285986936E+03  0.00000000000E+00 0.  1.
         25    2    1    2    0    0  0.59188130822E+02 -0.64632369164E+02 -0.14112420010E+03  0.20790789400E+03  0.12501629717E+03 0.  0.
         23    2    1    2    0    0 -0.59188130822E+02  0.64632369164E+02 -0.17772125602E+03  0.21896638861E+03  0.93171114228E+02 0.  0.
          5    1    4    4  502    0  0.18992528297E+02  0.23998301868E+02 -0.16270613159E+02  0.34977957004E+02  0.47000000000E+01 0. -1.
         -5    1    4    4    0  502 -0.78180659118E+02  0.40634067296E+02 -0.16145064286E+03  0.18398843161E+03  0.47000000000E+01 0.  1.
          5    1    3    3  503    0  0.83588283376E+02 -0.29682606265E+01 -0.96741862885E+02  0.12797222247E+03  0.47000000000E+01 0. -1.
         -5    1    3    3    0  503 -0.24400152555E+02 -0.61664108537E+02 -0.44382337214E+02  0.79935671530E+02  0.47000000000E+01 0. -1.
<mgrwt>
<rscale>  0 0.14606750E+03</rscale>
<asrwt>0</asrwt>
<pdfrwt beam="1">  1        1 0.83099096E-02 0.15267499E+03</pdfrwt>
<pdfrwt beam="2">  1       -1 0.57363057E-01 0.15267499E+03</pdfrwt>
<totfact> 0.25451376E+03</totfact>
</mgrwt>
</event>
<event>
 8    1  0.3551276E-004  0.1251668E+03  0.7546771E-02  0.1250042E+00
          2   -1    0    0  501    0  0.00000000000E+00  0.00000000000E+00  0.30504719473E+03  0.30504719473E+03  0.00000000000E+00 0. -1.
         -2   -1    0    0    0  501 -0.00000000000E+00 -0.00000000000E+00 -0.46003884464E+02  0.46003884464E+02  0.00000000000E+00 0.  1.
         25    2    1    2    0    0  0.29885835354E+01 -0.53155819759E+01  0.76624972702E+02  0.14675872801E+03  0.12501820173E+03 0.  0.
         23    2    1    2    0    0 -0.29885835354E+01  0.53155819759E+01  0.18241833756E+03  0.20429235118E+03  0.91769972365E+02 0.  0.
          5    1    3    3  502    0  0.63435812363E+02 -0.43957087161E+01  0.47381039239E+02  0.79438513485E+02  0.47000000000E+01 0.  1.
         -5    1    4    4    0  503 -0.24942861262E+02 -0.28623877788E+02  0.36755840101E+02  0.53052374962E+02  0.47000000000E+01 0.  1.
          5    1    4    4  503    0  0.21954277726E+02  0.33939459764E+02  0.14566249746E+03  0.15123997621E+03  0.47000000000E+01 0. -1.
         -5    1    3    3    0  502 -0.60447228827E+02 -0.91987325986E+00  0.29243933463E+02  0.67320214528E+02  0.47000000000E+01 0.  1.
<mgrwt>
<rscale>  0 0.11588609E+03</rscale>
<asrwt>0</asrwt>
<pdfrwt beam="1">  1        2 0.46930336E-01 0.12516684E+03</pdfrwt>
<pdfrwt beam="2">  1       -2 0.70775209E-02 0.12516684E+03</pdfrwt>
<totfact> 0.11533220E+04</totfact>
</mgrwt>
</event>
<event>
 8    1  0.3551276E-004  0.1405618E+03  0.7546771E-02  0.1223047E+00
          1   -1    0    0  501    0  0.00000000000E+00  0.00000000000E+00  0.56555781588E+02  0.56555781588E+02  0.00000000000E+00 0. -1.
         -1   -1    0    0    0  501 -0.00000000000E+00 -0.00000000000E+00 -0.32094908980E+03  0.32094908980E+03  0.00000000000E+00 0.  1.
         25    2    1    2    0    0 -0.44699455403E+02  0.46201999715E+02 -0.80980735903E+02  0.16222053039E+03  0.12499981920E+03 0.  0.
         23    2    1    2    0    0  0.44699455403E+02 -0.46201999715E+02 -0.18341257231E+03  0.21528434100E+03  0.92598648526E+02 0.  0.
          5    1    3    3  502    0 -0.33328843058E+02  0.85745479065E+02 -0.30734490103E+02  0.97107146192E+02  0.47000000000E+01 0. -1.
         -5    1    4    4    0  503  0.40212410531E+02  0.14604581094E+02 -0.37536239943E+02  0.57108590061E+02  0.47000000000E+01 0.  1.
          5    1    4    4  503    0  0.44870448712E+01 -0.60806580808E+02 -0.14587633237E+03  0.15817575094E+03  0.47000000000E+01 0. -1.
         -5    1    3    3    0  502 -0.11370612344E+02 -0.39543479350E+02 -0.50246245800E+02  0.65113384194E+02  0.47000000000E+01 0. -1.
<mgrwt>
<rscale>  0 0.13301684E+03</rscale>
<asrwt>0</asrwt>
<pdfrwt beam="1">  1        1 0.87008897E-02 0.14056180E+03</pdfrwt>
<pdfrwt beam="2">  1       -1 0.49376782E-01 0.14056180E+03</pdfrwt>
<totfact> 0.31459807E+03</totfact>
</mgrwt>
</event>
<event>
 8    1  0.3551276E-004  0.1332711E+03  0.7546771E-02  0.1235526E+00
          2   -1    0    0  501    0  0.00000000000E+00  0.00000000000E+00  0.59101470237E+02  0.59101470237E+02  0.00000000000E+00 0. -1.
         -2   -1    0    0    0  501 -0.00000000000E+00 -0.00000000000E+00 -0.25157483783E+03  0.25157483783E+03  0.00000000000E+00 0.  1.
         25    2    1    2    0    0  0.42894383503E+02  0.17162682112E+02 -0.14821831061E+03  0.19932346937E+03  0.12500676800E+03 0.  0.
         23    2    1    2    0    0 -0.42894383503E+02 -0.17162682112E+02 -0.44255056975E+02  0.11135283869E+03  0.91139776301E+02 0.  0.
          5    1    3    3  502    0  0.25682380111E+01 -0.51881580237E+02 -0.46672502846E+02  0.69990761792E+02  0.47000000000E+01 0.  1.
         -5    1    3    3    0  502  0.40326145492E+02  0.69044262348E+02 -0.10154580777E+03  0.12933270758E+03  0.47000000000E+01 0.  1.
          5    1    4    4  503    0 -0.33966622704E+02  0.14121774075E+02  0.17795707951E+02  0.41133115399E+02  0.47000000000E+01 0. -1.
         -5    1    4    4    0  503 -0.89277607987E+01 -0.31284456187E+02 -0.62050764926E+02  0.70219723295E+02  0.47000000000E+01 0.  1.
<mgrwt>
<rscale>  0 0.12470802E+03</rscale>
<asrwt>0</asrwt>
<pdfrwt beam="1">  1        2 0.90925341E-02 0.13327107E+03</pdfrwt>
<pdfrwt beam="2">  1       -2 0.38703820E-01 0.13327107E+03</pdfrwt>
<totfact> 0.43638534E+03</totfact>
</mgrwt>
</event>
<event>
 8    1  0.3551276E-004  0.1404001E+03  0.7546771E-02  0.1224591E+00
         -1   -1    0    0    0  501 -0.00000000000E+00  0.00000000000E+00  0.11189016537E+04  0.11189016537E+04  0.00000000000E+00 0.  1.
          1   -1    0    0  501    0  0.00000000000E+00 -0.00000000000E+00 -0.15829401379E+02  0.15829401379E+02  0.00000000000E+00 0. -1.
         25    2    1    2    0    0 -0.41699933280E+02 -0.48447452546E+02  0.80543174397E+03  0.81757720845E+03  0.12500462985E+03 0.  0.
         23    2    1    2    0    0  0.41699933280E+02  0.48447452546E+02  0.29764050835E+03  0.31715384663E+03  0.88941835648E+02 0.  0.
          5    1    3    3  502    0 -0.56538193792E+02 -0.72180301236E+02  0.74696606223E+03  0.75258683975E+03  0.47000000000E+01 0.  1.
         -5    1    4    4    0  503  0.30253651507E+02  0.46544197323E+01  0.24754460801E+03  0.24947418705E+03  0.47000000000E+01 0.  1.
          5    1    4    4  503    0  0.11446281773E+02  0.43793032814E+02  0.50095900344E+02  0.67679659579E+02  0.47000000000E+01 0. -1.
         -5    1    3    3    0  502  0.14838260512E+02  0.23732848690E+02  0.58465681742E+02  0.64990368698E+02  0.47000000000E+01 0.  1.
<mgrwt>
<rscale>  0 0.13194967E+03</rscale>
<asrwt>0</asrwt>
<pdfrwt beam="1">  1        1 0.24352934E-02 0.14040013E+03</pdfrwt>
<pdfrwt beam="2">  1       -1 0.17213865E+00 0.14040013E+03</pdfrwt>
<totfact> 0.11651928E+03</totfact>
</mgrwt>
</event>
<event>
 8    1  0.3551276E-004  0.1625935E+03  0.7546771E-02  0.1192937E+00
          2   -1    0    0  501    0  0.00000000000E+00  0.00000000000E+00  0.14558990133E+03  0.14558990133E+03  0.00000000000E+00 0. -1.
         -2   -1    0    0    0  501 -0.00000000000E+00 -0.00000000000E+00 -0.15679977592E+03  0.15679977592E+03  0.00000000000E+00 0.  1.
         25    2    1    2    0    0  0.81393998055E+02  0.64709414597E+02 -0.16584203641E+02  0.16343713701E+03  0.12499748273E+03 0.  0.
         23    2    1    2    0    0 -0.81393998055E+02 -0.64709414597E+02  0.53743290538E+01  0.13895254023E+03  0.92014312841E+02 0.  0.
          5    1    3    3  502    0 -0.25687934545E+02 -0.11876230401E+02  0.71880089047E+01  0.29574859285E+02  0.47000000000E+01 0.  1.
         -5    1    3    3    0  502  0.10708193260E+03  0.76585644998E+02 -0.23772212546E+02  0.13386227773E+03  0.47000000000E+01 0.  1.
          5    1    4    4  503    0  0.51308662542E+01 -0.44651297605E+02  0.18905692786E+02  0.48985501794E+02  0.47000000000E+01 0. -1.
         -5    1    4    4    0  503 -0.86524864309E+02 -0.20058116992E+02 -0.13531363733E+02  0.89967038439E+02  0.47000000000E+01 0.  1.
<mgrwt>
<rscale>  0 0.15630139E+03</rscale>
<asrwt>0</asrwt>
<pdfrwt beam="1">  1        2 0.22398446E-01 0.16259355E+03</pdfrwt>
<pdfrwt beam="2">  1       -2 0.24123042E-01 0.16259355E+03</pdfrwt>
<totfact> 0.35826066E+03</totfact>
</mgrwt>
</event>
<event>
 8    1  0.3551276E-004  0.1262627E+03  0.7546771E-02  0.1250992E+00
         -2   -1    0    0    0  501 -0.00000000000E+00  0.00000000000E+00  0.79940879120E+03  0.79940879120E+03  0.00000000000E+00 0. -1.
          2   -1    0    0  501    0  0.00000000000E+00 -0.00000000000E+00 -0.15807124216E+02  0.15807124216E+02  0.00000000000E+00 0.  1.
         25    2    1    2    0    0 -0.58392810393E+00 -0.17786771447E+02  0.33334241077E+03  0.35645396824E+03  0.12500223376E+03 0.  0.
         23    2    1    2    0    0  0.58392810393E+00  0.17786771447E+02  0.45025925621E+03  0.45876194717E+03  0.86095389888E+02 0.  0.
          5    1    3    3  502    0  0.29412056428E+02 -0.29085210370E+02  0.31781318317E+03  0.32052820144E+03  0.47000000000E+01 0.  1.
         -5    1    3    3    0  502 -0.29995984532E+02  0.11298438923E+02  0.15529227604E+02  0.35925766799E+02  0.47000000000E+01 0.  1.
          5    1    4    4  503    0 -0.34469681152E+02  0.22298464819E+02  0.12725240841E+03  0.13379329542E+03  0.47000000000E+01 0. -1.
         -5    1    4    4    0  503  0.35053609256E+02 -0.45116933722E+01  0.32300684780E+03  0.32496865176E+03  0.47000000000E+01 0.  1.
<mgrwt>
<rscale>  0 0.11533805E+03</rscale>
<asrwt>0</asrwt>
<pdfrwt beam="1">  1        2 0.24318659E-02 0.12626270E+03</pdfrwt>
<pdfrwt beam="2">  1       -2 0.12298594E+00 0.12626270E+03</pdfrwt>
<totfact> 0.20805997E+03</totfact>
</mgrwt>
</event>
<event>
 8    1  0.3551276E-004  0.1549238E+03  0.7546771E-02  0.1202464E+00
          2   -1    0    0  501    0  0.00000000000E+00  0.00000000000E+00  0.64491276782E+03  0.64491276782E+03  0.00000000000E+00 0.  1.
         -2   -1    0    0    0  501 -0.00000000000E+00 -0.00000000000E+00 -0.33858151894E+02  0.33858151894E+02  0.00000000000E+00 0. -1.
         25    2    1    2    0    0  0.88385807476E+02  0.23748556027E+02  0.24185917428E+03  0.28722333970E+03  0.12500136722E+03 0.  0.
         23    2    1    2    0    0 -0.88385807476E+02 -0.23748556027E+02  0.36919544165E+03  0.39154758002E+03  0.92888042331E+02 0.  0.
          5    1    4    4  502    0 -0.12324695060E+02 -0.20928277451E+02  0.14346990330E+02  0.28597500536E+02  0.47000000000E+01 0. -1.
         -5    1    3    3    0  503  0.39513879793E+02  0.65315432939E+02  0.18925053432E+03  0.20412081524E+03  0.47000000000E+01 0.  1.
          5    1    3    3  503    0  0.48871927683E+02 -0.41566876912E+02  0.52608639960E+02  0.83102524451E+02  0.47000000000E+01 0.  1.
         -5    1    4    4    0  502 -0.76061112416E+02 -0.28202785757E+01  0.35484845132E+03  0.36295007948E+03  0.47000000000E+01 0.  1.
<mgrwt>
<rscale>  0 0.14839124E+03</rscale>
<asrwt>0</asrwt>
<pdfrwt beam="1">  1        2 0.99217340E-01 0.15492381E+03</pdfrwt>
<pdfrwt beam="2">  1       -2 0.52089469E-02 0.15492381E+03</pdfrwt>
<totfact> 0.82379234E+03</totfact>
</mgrwt>
</event>
<event>
 8    1  0.3551276E-004  0.1324291E+03  0.7546771E-02  0.1237023E+00
         -1   -1    0    0    0  501 -0.00000000000E+00  0.00000000000E+00  0.24985465107E+03  0.24985465107E+03  0.00000000000E+00 0.  1.
          1   -1    0    0  501    0  0.00000000000E+00 -0.00000000000E+00 -0.56243537719E+02  0.56243537719E+02  0.00000000000E+00 0. -1.
         25    2    1    2    0    0 -0.98802757874E+01 -0.42610514461E+02  0.13596610577E+03  0.18980053528E+03  0.12499674188E+03 0.  0.
         23    2    1    2    0    0  0.98802757874E+01  0.42610514461E+02  0.57645007572E+02  0.11629765350E+03  0.91043514431E+02 0.  0.
          5    1    4    4  502    0  0.41633835288E+02  0.17970998132E+02 -0.33732069783E+00  0.45590972789E+02  0.47000000000E+01 0. -1.
         -5    1    3    3    0  503 -0.39833520206E+02 -0.44438886418E+02  0.14601228444E+03  0.15780748133E+03  0.47000000000E+01 0. -1.
          5    1    3    3  503    0  0.29953244419E+02  0.18283719574E+01 -0.10046178663E+02  0.31993053948E+02  0.47000000000E+01 0. -1.
         -5    1    4    4    0  502 -0.31753559501E+02  0.24639516329E+02  0.57982328270E+02  0.70706680713E+02  0.47000000000E+01 0.  1.
<mgrwt>
<rscale>  0 0.12375827E+03</rscale>
<asrwt>0</asrwt>
<pdfrwt beam="1">  1        1 0.86528521E-02 0.13242908E+03</pdfrwt>
<pdfrwt beam="2">  1       -1 0.38439177E-01 0.13242908E+03</pdfrwt>
<totfact> 0.49317000E+03</totfact>
</mgrwt>
</event>
<event>
 8    1  0.3551276E-004  0.1874936E+03  0.7546771E-02  0.1165879E+00
         -1   -1    0    0    0  501 -0.00000000000E+00  0.00000000000E+00  0.22542636526E+03  0.22542636526E+03  0.00000000000E+00 0.  1.
          1   -1    0    0  501    0  0.00000000000E+00 -0.00000000000E+00 -0.18686572671E+03  0.18686572671E+03  0.00000000000E+00 0. -1.
         25    2    1    2    0    0  0.79574525010E+02 -0.11489953807E+03  0.12438064268E+03  0.22499865477E+03  0.12497936428E+03 0.  0.
         23    2    1    2    0    0 -0.79574525010E+02  0.11489953807E+03 -0.85820004127E+02  0.18729343720E+03  0.90441968303E+02 0.  0.
          5    1    4    4  502    0  0.22940195045E+01  0.71451348146E+02 -0.23062329232E+02  0.75262996930E+02  0.47000000000E+01 0. -1.
         -5    1    3    3    0  503  0.21167963879E+02 -0.79963714397E+02  0.13252742201E+03  0.15629422862E+03  0.47000000000E+01 0.  1.
          5    1    3    3  503    0  0.58406561131E+02 -0.34935823671E+02 -0.81467793314E+01  0.68704426147E+02  0.47000000000E+01 0.  1.
         -5    1    4    4    0  502 -0.81868544514E+02  0.43448189922E+02 -0.62757674895E+02  0.11203044027E+03  0.47000000000E+01 0.  1.
<mgrwt>
<rscale>  0 0.18200225E+03</rscale>
<asrwt>0</asrwt>
<pdfrwt beam="1">  1        1 0.28748573E-01 0.18749360E+03</pdfrwt>
<pdfrwt beam="2">  1       -1 0.34680979E-01 0.18749360E+03</pdfrwt>
<totfact> 0.12622866E+03</totfact>
</mgrwt>
</event>
<event>
 8    1  0.3551276E-004  0.1394612E+03  0.7546771E-02  0.1224844E+00
          3   -1    0    0  501    0  0.00000000000E+00  0.00000000000E+00  0.18084349291E+03  0.18084349291E+03  0.00000000000E+00 0. -1.
         -3   -1    0    0    0  501 -0.00000000000E+00 -0.00000000000E+00 -0.87152981119E+02  0.87152981119E+02  0.00000000000E+00 0.  1.
         25    2    1    2    0    0  0.81628831377E+01 -0.61298811483E+02  0.60133368298E+02  0.15187316816E+03  0.12500104109E+03 0.  0.
         23    2    1    2    0    0 -0.81628831377E+01  0.61298811483E+02  0.33557143492E+02  0.11612330587E+03  0.92381617954E+02 0.  0.
          5    1    4    4  502    0  0.18959232401E+02  0.59314906235E+02  0.53372309896E+02  0.82148670461E+02  0.47000000000E+01 0. -1.
         -5    1    4    4    0  502 -0.27122115539E+02  0.19839052479E+01 -0.19815166404E+02  0.33974635406E+02  0.47000000000E+01 0.  1.
          5    1    3    3  503    0 -0.31728270132E+02 -0.66787530345E+02  0.77991926369E+02  0.10757363949E+03  0.47000000000E+01 0.  1.
         -5    1    3    3    0  503  0.39891153269E+02  0.54887188622E+01 -0.17858558071E+02  0.44299528669E+02  0.47000000000E+01 0.  1.
<mgrwt>
<rscale>  0 0.13177591E+03</rscale>
<asrwt>0</asrwt>
<pdfrwt beam="1">  1        3 0.27822076E-01 0.13946124E+03</pdfrwt>
<pdfrwt beam="2">  1       -3 0.13408151E-01 0.13946124E+03</pdfrwt>
<totfact> 0.12842814E+03</totfact>
</mgrwt>
</event>
<event>
 8    1  0.3551276E-004  0.1878649E+03  0.7546771E-02  0.1165611E+00
          1   -1    0    0  501    0  0.00000000000E+00  0.00000000000E+00  0.21312550046E+03  0.21312550046E+03  0.00000000000E+00 0. -1.
         -1   -1    0    0    0  501 -0.00000000000E+00 -0.00000000000E+00 -0.16128140218E+03  0.16128140218E+03  0.00000000000E+00 0.  1.
         25    2    1    2    0    0 -0.47024207721E+02 -0.13212999853E+03 -0.27649823700E+02  0.18988872142E+03  0.12499440446E+03 0.  0.
         23    2    1    2    0    0  0.47024207721E+02  0.13212999853E+03  0.79493921972E+02  0.18451818123E+03  0.89766714033E+02 0.  0.
          5    1    4    4  502    0  0.54541177799E+02  0.90931540194E+02  0.92105061544E+02  0.14053013001E+03  0.47000000000E+01 0. -1.
         -5    1    4    4    0  502 -0.75169700782E+01  0.41198458339E+02 -0.12611139573E+02  0.43988051218E+02  0.47000000000E+01 0.  1.
          5    1    3    3  503    0 -0.74014511433E+02 -0.71260651621E+02 -0.56297096760E+02  0.11725050736E+03  0.47000000000E+01 0. -1.
         -5    1    3    3    0  503  0.26990303712E+02 -0.60869346911E+02  0.28647273060E+02  0.72638214058E+02  0.47000000000E+01 0. -1.
<mgrwt>
<rscale>  0 0.18228393E+03</rscale>
<asrwt>0</asrwt>
<pdfrwt beam="1">  1        1 0.32788539E-01 0.18786488E+03</pdfrwt>
<pdfrwt beam="2">  1       -1 0.24812523E-01 0.18786488E+03</pdfrwt>
<totfact> 0.18843784E+03</totfact>
</mgrwt>
</event>
<event>
 8    1  0.3551276E-004  0.1253657E+03  0.7546771E-02  0.1250058E+00
          1   -1    0    0  501    0  0.00000000000E+00  0.00000000000E+00  0.51521741198E+02  0.51521741198E+02  0.00000000000E+00 0. -1.
         -1   -1    0    0    0  501 -0.00000000000E+00 -0.00000000000E+00 -0.24300045148E+03  0.24300045148E+03  0.00000000000E+00 0.  1.
         25    2    1    2    0    0  0.71058550114E+01  0.62689485568E+01 -0.73878656099E+02  0.14551495958E+03  0.12500701877E+03 0.  0.
         23    2    1    2    0    0 -0.71058550114E+01 -0.62689485568E+01 -0.11760005418E+03  0.14900723310E+03  0.91014229000E+02 0.  0.
          5    1    3    3  502    0  0.57538404644E+02 -0.93602335441E+01 -0.51367126772E+01  0.58709094679E+02  0.47000000000E+01 0.  1.
         -5    1    4    4    0  503  0.12022575378E+02  0.27089184966E+02 -0.10353103541E+03  0.10779207557E+03  0.47000000000E+01 0.  1.
          5    1    4    4  503    0 -0.19128430389E+02 -0.33358133523E+02 -0.14069018766E+02  0.41215157531E+02  0.47000000000E+01 0. -1.
         -5    1    3    3    0  502 -0.50432549632E+02  0.15629182101E+02 -0.68741943422E+02  0.86805864900E+02  0.47000000000E+01 0.  1.
<mgrwt>
<rscale>  0 0.11587682E+03</rscale>
<asrwt>0</asrwt>
<pdfrwt beam="1">  1        1 0.79264216E-02 0.12536566E+03</pdfrwt>
<pdfrwt beam="2">  1       -1 0.37384685E-01 0.12536566E+03</pdfrwt>
<totfact> 0.57964815E+03</totfact>
</mgrwt>
</event>
<event>
 8    1  0.3551276E-004  0.1394239E+03  0.7546771E-02  0.1222389E+00
         -2   -1    0    0    0  501 -0.00000000000E+00  0.00000000000E+00  0.45356683410E+02  0.45356683410E+02  0.00000000000E+00 0.  1.
          2   -1    0    0  501    0  0.00000000000E+00 -0.00000000000E+00 -0.37693598755E+03  0.37693598755E+03  0.00000000000E+00 0. -1.
         25    2    1    2    0    0 -0.43833104938E+02  0.43488973741E+02 -0.13882347734E+03  0.19675107269E+03  0.12500557914E+03 0.  0.
         23    2    1    2    0    0  0.43833104938E+02 -0.43488973741E+02 -0.19275582680E+03  0.22554159827E+03  0.99506642293E+02 0.  0.
          5    1    4    4  502    0  0.26077359401E+02  0.28985732771E+02 -0.43488175108E+02  0.58596183765E+02  0.47000000000E+01 0. -1.
         -5    1    4    4    0  502  0.17755745537E+02 -0.72474706512E+02 -0.14926765169E+03  0.16694541450E+03  0.47000000000E+01 0.  1.
          5    1    3    3  503    0 -0.39804165499E+02  0.74667004808E+02 -0.14141062500E+03  0.16485929777E+03  0.47000000000E+01 0. -1.
         -5    1    3    3    0  503 -0.40289394393E+01 -0.31178031067E+02  0.25871476624E+01  0.31891774916E+02  0.47000000000E+01 0. -1.
<mgrwt>
<rscale>  0 0.13347480E+03</rscale>
<asrwt>0</asrwt>
<pdfrwt beam="1">  1        2 0.57990151E-01 0.13942391E+03</pdfrwt>
<pdfrwt beam="2">  1       -2 0.69779514E-02 0.13942391E+03</pdfrwt>
<totfact> 0.94932519E+03</totfact>
</mgrwt>
</event>
<event>
 8    1  0.3551276E-004  0.1459860E+03  0.7546771E-02  0.1211700E+00
          2   -1    0    0  501    0  0.00000000000E+00  0.00000000000E+00  0.54118693651E+03  0.54118693651E+03  0.00000000000E+00 0. -1.
         -2   -1    0    0    0  501 -0.00000000000E+00 -0.00000000000E+00 -0.36372094438E+02  0.36372094438E+02  0.00000000000E+00 0.  1.
         25    2    1    2    0    0 -0.37622641483E+02 -0.65357062958E+02  0.33134398561E+03  0.36207838882E+03  0.12499965608E+03 0.  0.
         23    2    1    2    0    0  0.37622641483E+02  0.65357062958E+02  0.17347085646E+03  0.21548064213E+03  0.10321220984E+03 0.  0.
          5    1    4    4  502    0 -0.30589226528E+02  0.48287540936E+02  0.77402891274E+02  0.96336311778E+02  0.47000000000E+01 0. -1.
         -5    1    3    3    0  503 -0.23725672481E+02 -0.10272061956E+03  0.22907552290E+03  0.25221442942E+03  0.47000000000E+01 0. -1.
          5    1    3    3  503    0 -0.13896969002E+02  0.37363556599E+02  0.10226846271E+03  0.10986395940E+03  0.47000000000E+01 0. -1.
         -5    1    4    4    0  502  0.68211868012E+02  0.17069522022E+02  0.96067965190E+02  0.11914433035E+03  0.47000000000E+01 0.  1.
<mgrwt>
<rscale>  0 0.14121773E+03</rscale>
<asrwt>0</asrwt>
<pdfrwt beam="1">  1        2 0.83259523E-01 0.14598604E+03</pdfrwt>
<pdfrwt beam="2">  1       -2 0.55957072E-02 0.14598604E+03</pdfrwt>
<totfact> 0.89948449E+03</totfact>
</mgrwt>
</event>
<event>
 8    1  0.3551276E-004  0.1410134E+03  0.7546771E-02  0.1221247E+00
          1   -1    0    0  501    0  0.00000000000E+00  0.00000000000E+00  0.40675231827E+03  0.40675231827E+03  0.00000000000E+00 0. -1.
         -1   -1    0    0    0  501 -0.00000000000E+00 -0.00000000000E+00 -0.45170966924E+02  0.45170966924E+02  0.00000000000E+00 0.  1.
         25    2    1    2    0    0  0.34102028815E+02 -0.55658745450E+02  0.12489677459E+03  0.18837192998E+03  0.12499574147E+03 0.  0.
         23    2    1    2    0    0 -0.34102028815E+02  0.55658745450E+02  0.23668457676E+03  0.26355135522E+03  0.95806490644E+02 0.  0.
          5    1    4    4  502    0 -0.74826115638E+01 -0.27158858195E+02  0.66195628548E+02  0.72093996235E+02  0.47000000000E+01 0. -1.
         -5    1    4    4    0  502 -0.26619417252E+02  0.82817603645E+02  0.17048894821E+03  0.19145735898E+03  0.47000000000E+01 0.  1.
          5    1    3    3  503    0 -0.22443737099E+02 -0.57018428207E+01  0.10846354248E+03  0.11100748801E+03  0.47000000000E+01 0. -1.
         -5    1    3    3    0  503  0.56545765915E+02 -0.49956902629E+02  0.16433232111E+02  0.77364441967E+02  0.47000000000E+01 0. -1.
<mgrwt>
<rscale>  0 0.13427467E+03</rscale>
<asrwt>0</asrwt>
<pdfrwt beam="1">  1        1 0.62577277E-01 0.14101340E+03</pdfrwt>
<pdfrwt beam="2">  1       -1 0.69493798E-02 0.14101340E+03</pdfrwt>
<totfact> 0.60827240E+03</totfact>
</mgrwt>
</event>
<event>
 8    1  0.3551276E-004  0.1439163E+03  0.7546771E-02  0.1218399E+00
         -2   -1    0    0    0  501 -0.00000000000E+00  0.00000000000E+00  0.24104760905E+03  0.24104760905E+03  0.00000000000E+00 0.  1.
          2   -1    0    0  501    0  0.00000000000E+00 -0.00000000000E+00 -0.70315032263E+02  0.70315032263E+02  0.00000000000E+00 0. -1.
         25    2    1    2    0    0  0.68878186839E+02 -0.18486293432E+02  0.83352825945E+02  0.16631177625E+03  0.12500386258E+03 0.  0.
         23    2    1    2    0    0 -0.68878186839E+02  0.18486293432E+02  0.87379750843E+02  0.14505086506E+03  0.91206276816E+02 0.  0.
          5    1    3    3  502    0  0.58505449401E+02  0.45382211696E+02  0.65640348334E+02  0.99061486347E+02  0.47000000000E+01 0. -1.
         -5    1    4    4    0  503 -0.40272687186E+02  0.49870953436E+02  0.78425322792E+02  0.10139833620E+03  0.47000000000E+01 0.  1.
          5    1    4    4  503    0 -0.28605499654E+02 -0.31384660004E+02  0.89544280507E+01  0.43652528858E+02  0.47000000000E+01 0. -1.
         -5    1    3    3    0  502  0.10372737438E+02 -0.63868505127E+02  0.17712477612E+02  0.67250289905E+02  0.47000000000E+01 0. -1.
<mgrwt>
<rscale>  0 0.13629786E+03</rscale>
<asrwt>0</asrwt>
<pdfrwt beam="1">  1        2 0.10817697E-01 0.14391634E+03</pdfrwt>
<pdfrwt beam="2">  1       -2 0.37084247E-01 0.14391634E+03</pdfrwt>
<totfact> 0.38381618E+03</totfact>
</mgrwt>
</event>
<event>
 8    1  0.3551276E-004  0.1270956E+03  0.7546771E-02  0.1245742E+00
         -1   -1    0    0    0  501 -0.00000000000E+00  0.00000000000E+00  0.38289546362E+02  0.38289546362E+02  0.00000000000E+00 0.  1.
          1   -1    0    0  501    0  0.00000000000E+00 -0.00000000000E+00 -0.34951765025E+03  0.34951765025E+03  0.00000000000E+00 0. -1.
         25    2    1    2    0    0  0.13878506068E+02 -0.18312524663E+02 -0.12427604419E+03  0.17775778596E+03  0.12500133527E+03 0.  0.
         23    2    1    2    0    0 -0.13878506068E+02  0.18312524663E+02 -0.18695205970E+03  0.21004941066E+03  0.92960856278E+02 0.  0.
          5    1    3    3  502    0 -0.35777264900E+02  0.11769937180E+02  0.27078997719E+01  0.38052159283E+02  0.47000000000E+01 0. -1.
         -5    1    3    3    0  502  0.49655770968E+02 -0.30082461843E+02 -0.12698394396E+03  0.13970562668E+03  0.47000000000E+01 0. -1.
          5    1    4    4  503    0 -0.11298381772E+02 -0.26326515854E+02 -0.14720118151E+03  0.15003671786E+03  0.47000000000E+01 0. -1.
         -5    1    4    4    0  503 -0.25801242961E+01  0.44639040517E+02 -0.39750878187E+02  0.60012692793E+02  0.47000000000E+01 0.  1.
<mgrwt>
<rscale>  0 0.11841104E+03</rscale>
<asrwt>0</asrwt>
<pdfrwt beam="1">  1        1 0.53771949E-01 0.12709561E+03</pdfrwt>
<pdfrwt beam="2">  1       -1 0.58906992E-02 0.12709561E+03</pdfrwt>
<totfact> 0.93508154E+03</totfact>
</mgrwt>
</event>
<event>
 8    1  0.3551276E-004  0.1689985E+03  0.7546771E-02  0.1185422E+00
          2   -1    0    0  501    0  0.00000000000E+00  0.00000000000E+00  0.74861063403E+02  0.74861063403E+02  0.00000000000E+00 0. -1.
         -2   -1    0    0    0  501 -0.00000000000E+00 -0.00000000000E+00 -0.41591618034E+03  0.41591618034E+03  0.00000000000E+00 0.  1.
         25    2    1    2    0    0 -0.10733258198E+03 -0.37631851650E+02 -0.29081946161E+03  0.33635762698E+03  0.12499621819E+03 0.  0.
         23    2    1    2    0    0  0.10733258198E+03  0.37631851650E+02 -0.50235655328E+02  0.15441961677E+03  0.91571598013E+02 0.  0.
          5    1    4    4  502    0  0.89929721111E+02  0.65692065348E+02 -0.30094045483E+02  0.11545797401E+03  0.47000000000E+01 0. -1.
         -5    1    3    3    0  503 -0.15243683661E+02 -0.69108395779E+02 -0.13712740863E+03  0.15438379596E+03  0.47000000000E+01 0.  1.
          5    1    3    3  503    0 -0.92088898322E+02  0.31476544129E+02 -0.15369205298E+03  0.18197383101E+03  0.47000000000E+01 0.  1.
         -5    1    4    4    0  502  0.17402860872E+02 -0.28060213698E+02 -0.20141609846E+02  0.38961642758E+02  0.47000000000E+01 0.  1.
<mgrwt>
<rscale>  0 0.16293528E+03</rscale>
<asrwt>0</asrwt>
<pdfrwt beam="1">  1        2 0.11517087E-01 0.16899850E+03</pdfrwt>
<pdfrwt beam="2">  1       -2 0.63987106E-01 0.16899850E+03</pdfrwt>
<totfact> 0.12209332E+03</totfact>
</mgrwt>
</event>
<event>
 8    1  0.3551276E-004  0.1515068E+03  0.7546771E-02  0.1206972E+00
         -3   -1    0    0    0  501 -0.00000000000E+00  0.00000000000E+00  0.73398664852E+02  0.73398664852E+02  0.00000000000E+00 0.  1.
          3   -1    0    0  501    0  0.00000000000E+00 -0.00000000000E+00 -0.27812203267E+03  0.27812203267E+03  0.00000000000E+00 0. -1.
         25    2    1    2    0    0  0.74882314610E+02 -0.41480315991E+02 -0.15151780789E+03  0.21427074205E+03  0.12500530843E+03 0.  0.
         23    2    1    2    0    0 -0.74882314610E+02  0.41480315991E+02 -0.53205559931E+02  0.13724995547E+03  0.93159760699E+02 0.  0.
          5    1    3    3  502    0 -0.17517120953E+02 -0.45234851831E+02 -0.18351307310E+02  0.52075923676E+02  0.47000000000E+01 0.  1.
         -5    1    4    4    0  503 -0.41536343892E+02  0.14292188818E+02  0.22853741972E+02  0.49738496633E+02  0.47000000000E+01 0.  1.
          5    1    4    4  503    0 -0.33345970718E+02  0.27188127173E+02 -0.76059301903E+02  0.87511458840E+02  0.47000000000E+01 0. -1.
         -5    1    3    3    0  502  0.92399435563E+02  0.37545358402E+01 -0.13316650058E+03  0.16219481838E+03  0.47000000000E+01 0.  1.
<mgrwt>
<rscale>  0 0.14483110E+03</rscale>
<asrwt>0</asrwt>
<pdfrwt beam="1">  1        3 0.42788006E-01 0.15150678E+03</pdfrwt>
<pdfrwt beam="2">  1       -3 0.11292102E-01 0.15150678E+03</pdfrwt>
<totfact> 0.77033199E+02</totfact>
</mgrwt>
</event>
<event>
 8    1  0.3551276E-004  0.1343441E+03  0.7546771E-02  0.1234810E+00
         -1   -1    0    0    0  501 -0.00000000000E+00  0.00000000000E+00  0.53648976685E+02  0.53648976685E+02  0.00000000000E+00 0.  1.
          1   -1    0    0  501    0  0.00000000000E+00 -0.00000000000E+00 -0.32144849431E+03  0.32144849431E+03  0.00000000000E+00 0. -1.
         25    2    1    2    0    0  0.48087764327E+02 -0.10473446154E+02 -0.23131656197E+03  0.26749897260E+03  0.12500488930E+03 0.  0.
         23    2    1    2    0    0 -0.48087764327E+02  0.10473446154E+02 -0.36482955656E+02  0.10759849840E+03  0.88455099634E+02 0.  0.
          5    1    4    4  502    0 -0.44095750590E+02 -0.29964014203E+02 -0.11274942362E+01  0.53531659890E+02  0.47000000000E+01 0. -1.
         -5    1    3    3    0  503 -0.41843080704E+02 -0.46366296761E+01 -0.54917952085E+02  0.69357142377E+02  0.47000000000E+01 0.  1.
          5    1    3    3  503    0  0.89930845031E+02 -0.58368164775E+01 -0.17639860988E+03  0.19814183022E+03  0.47000000000E+01 0.  1.
         -5    1    4    4    0  502 -0.39920137371E+01  0.40437460357E+02 -0.35355461420E+02  0.54066838506E+02  0.47000000000E+01 0.  1.
<mgrwt>
<rscale>  0 0.12516578E+03</rscale>
<asrwt>0</asrwt>
<pdfrwt beam="1">  1        1 0.49453615E-01 0.13434414E+03</pdfrwt>
<pdfrwt beam="2">  1       -1 0.82536887E-02 0.13434414E+03</pdfrwt>
<totfact> 0.62848547E+03</totfact>
</mgrwt>
</event>
<event>
 8    1  0.3551276E-004  0.1475023E+03  0.7546771E-02  0.1216619E+00
         -2   -1    0    0    0  501 -0.00000000000E+00  0.00000000000E+00  0.62617431157E+02  0.62617431157E+02  0.00000000000E+00 0.  1.
          2   -1    0    0  501    0  0.00000000000E+00 -0.00000000000E+00 -0.28017777364E+03  0.28017777364E+03  0.00000000000E+00 0. -1.
         25    2    1    2    0    0 -0.53273805325E+02  0.57386497373E+02 -0.15839064597E+03  0.21643593792E+03  0.12500244029E+03 0.  0.
         23    2    1    2    0    0  0.53273805325E+02 -0.57386497373E+02 -0.59169696508E+02  0.12635926687E+03  0.79588334104E+02 0.  0.
          5    1    3    3  502    0  0.40048769770E+02  0.26978364861E+02 -0.42549292938E+02  0.64531143336E+02  0.47000000000E+01 0. -1.
         -5    1    3    3    0  502 -0.93322575096E+02  0.30408132511E+02 -0.11584135304E+03  0.15190479459E+03  0.47000000000E+01 0. -1.
          5    1    4    4  503    0  0.24666099126E+02 -0.30995437872E+02 -0.74304526668E+02  0.84334964863E+02  0.47000000000E+01 0. -1.
         -5    1    4    4    0  503  0.28607706199E+02 -0.26391059501E+02  0.15134830160E+02  0.42024302011E+02  0.47000000000E+01 0.  1.
<mgrwt>
<rscale>  0 0.13758251E+03</rscale>
<asrwt>0</asrwt>
<pdfrwt beam="1">  1        2 0.43104273E-01 0.14750227E+03</pdfrwt>
<pdfrwt beam="2">  1       -2 0.96334510E-02 0.14750227E+03</pdfrwt>
<totfact> 0.79254533E+03</totfact>
</mgrwt>
</event>
<event>
 8    1  0.3551276E-004  0.1500134E+03  0.7546771E-02  0.1209319E+00
          2   -1    0    0  501    0  0.00000000000E+00  0.00000000000E+00  0.20998091879E+03  0.20998091879E+03  0.00000000000E+00 0. -1.
         -2   -1    0    0    0  501 -0.00000000000E+00 -0.00000000000E+00 -0.91902053853E+02  0.91902053853E+02  0.00000000000E+00 0.  1.
         25    2    1    2    0    0  0.75188804364E+02 -0.35010153582E+02  0.39495923935E+02  0.15512558889E+03  0.12499981266E+03 0.  0.
         23    2    1    2    0    0 -0.75188804364E+02  0.35010153582E+02  0.78582941003E+02  0.14675738376E+03  0.92105287117E+02 0.  0.
          5    1    3    3  502    0 -0.86821432042E+01 -0.55589215253E+02 -0.70695589335E+01  0.56899992325E+02  0.47000000000E+01 0.  1.
         -5    1    4    4    0  503 -0.21642463964E+02  0.28403850649E+01 -0.19986191855E+02  0.29966679807E+02  0.47000000000E+01 0.  1.
          5    1    4    4  503    0 -0.53546340400E+02  0.32169768517E+02  0.98569132858E+02  0.11679070395E+03  0.47000000000E+01 0. -1.
         -5    1    3    3    0  502  0.83870947569E+02  0.20579061671E+02  0.46565482869E+02  0.98225596563E+02  0.47000000000E+01 0.  1.
<mgrwt>
<rscale>  0 0.14302274E+03</rscale>
<asrwt>0</asrwt>
<pdfrwt beam="1">  1        2 0.32304757E-01 0.15001340E+03</pdfrwt>
<pdfrwt beam="2">  1       -2 0.14138778E-01 0.15001340E+03</pdfrwt>
<totfact> 0.58545695E+03</totfact>
</mgrwt>
</event>
<event>
 8    1  0.3551276E-004  0.1392194E+03  0.7546771E-02  0.1225828E+00
         -1   -1    0    0    0  501 -0.00000000000E+00  0.00000000000E+00  0.82317445739E+02  0.82317445739E+02  0.00000000000E+00 0.  1.
          1   -1    0    0  501    0  0.00000000000E+00 -0.00000000000E+00 -0.20230833478E+03  0.20230833478E+03  0.00000000000E+00 0. -1.
         25    2    1    2    0    0 -0.27643497560E+02 -0.54701019324E+02 -0.10444555725E+03  0.17404283532E+03  0.12500267846E+03 0.  0.
         23    2    1    2    0    0  0.27643497560E+02  0.54701019324E+02 -0.15545331794E+02  0.11058294521E+03  0.90722466663E+02 0.  0.
          5    1    3    3  502    0 -0.13451478458E+02 -0.26315242793E+02 -0.12976644287E+03  0.13317227178E+03  0.47000000000E+01 0.  1.
         -5    1    4    4    0  503  0.87394365140E+01 -0.21499821330E+02 -0.21126535975E+02  0.31733902850E+02  0.47000000000E+01 0.  1.
          5    1    4    4  503    0  0.18904061046E+02  0.76200840654E+02  0.55812041811E+01  0.78849042356E+02  0.47000000000E+01 0. -1.
         -5    1    3    3    0  502 -0.14192019102E+02 -0.28385776531E+02  0.25320885618E+02  0.40870563538E+02  0.47000000000E+01 0.  1.
<mgrwt>
<rscale>  0 0.13110319E+03</rscale>
<asrwt>0</asrwt>
<pdfrwt beam="1">  1        1 0.31124359E-01 0.13921937E+03</pdfrwt>
<pdfrwt beam="2">  1       -1 0.12664223E-01 0.13921937E+03</pdfrwt>
<totfact> 0.58074407E+03</totfact>
</mgrwt>
</event>
<event>
 8    1  0.3551276E-004  0.2475599E+03  0.7546771E-02  0.1117378E+00
          1   -1    0    0  501    0  0.00000000000E+00  0.00000000000E+00  0.70033004659E+03  0.70033004659E+03  0.00000000000E+00 0. -1.
         -1   -1    0    0    0  501 -0.00000000000E+00 -0.00000000000E+00 -0.88313715242E+02  0.88313715242E+02  0.00000000000E+00 0.  1.
         25    2    1    2    0    0  0.17642073680E+03  0.12057123472E+03  0.21141341500E+03  0.32554808201E+03  0.12499689053E+03 0.  0.
         23    2    1    2    0    0 -0.17642073680E+03 -0.12057123472E+03  0.40060291635E+03  0.46309567983E+03  0.91176823131E+02 0.  0.
          5    1    3    3  502    0  0.15617402554E+02  0.70603953085E+02  0.10034510616E+03  0.12377419676E+03  0.47000000000E+01 0. -1.
         -5    1    4    4    0  503 -0.11688118054E+03 -0.12635896525E+03  0.30372759696E+03  0.34914229423E+03  0.47000000000E+01 0.  1.
          5    1    4    4  503    0 -0.59539556254E+02  0.57877305276E+01  0.96875319385E+02  0.11395338560E+03  0.47000000000E+01 0. -1.
         -5    1    3    3    0  502  0.16080333424E+03  0.49967281632E+02  0.11106830885E+03  0.20177388525E+03  0.47000000000E+01 0. -1.
<mgrwt>
<rscale>  0 0.24366001E+03</rscale>
<asrwt>0</asrwt>
<pdfrwt beam="1">  1        1 0.10774308E+00 0.24755994E+03</pdfrwt>
<pdfrwt beam="2">  1       -1 0.13586726E-01 0.24755994E+03</pdfrwt>
<totfact> 0.10618651E+03</totfact>
</mgrwt>
</event>
<event>
 8    1  0.3551276E-004  0.1272597E+03  0.7546771E-02  0.1245937E+00
         -2   -1    0    0    0  501 -0.00000000000E+00  0.00000000000E+00  0.25377094596E+02  0.25377094596E+02  0.00000000000E+00 0.  1.
          2   -1    0    0  501    0  0.00000000000E+00 -0.00000000000E+00 -0.56637776626E+03  0.56637776626E+03  0.00000000000E+00 0. -1.
         25    2    1    2    0    0  0.20457045128E+02  0.12308323213E+02 -0.41417583447E+03  0.43328587394E+03  0.12500016469E+03 0.  0.
         23    2    1    2    0    0 -0.20457045128E+02 -0.12308323213E+02 -0.12682483719E+03  0.15846898692E+03  0.91966814515E+02 0.  0.
          5    1    4    4  502    0  0.10970337540E+02  0.25858408252E+02 -0.95724276596E+02  0.99871080463E+02  0.47000000000E+01 0. -1.
         -5    1    3    3    0  503  0.53722701193E+02  0.50106427028E+02 -0.19711608922E+03  0.21041298744E+03  0.47000000000E+01 0. -1.
          5    1    3    3  503    0 -0.33265656065E+02 -0.37798103816E+02 -0.21705974526E+03  0.22287288650E+03  0.47000000000E+01 0. -1.
         -5    1    4    4    0  502 -0.31427382668E+02 -0.38166731465E+02 -0.31100560596E+02  0.58597906460E+02  0.47000000000E+01 0.  1.
<mgrwt>
<rscale>  0 0.11829499E+03</rscale>
<asrwt>0</asrwt>
<pdfrwt beam="1">  1        2 0.87135032E-01 0.12725968E+03</pdfrwt>
<pdfrwt beam="2">  1       -2 0.39041688E-02 0.12725968E+03</pdfrwt>
<totfact> 0.14511720E+04</totfact>
</mgrwt>
</event>
<event>
 8    1  0.3551276E-004  0.1736848E+03  0.7546771E-02  0.1180075E+00
         -2   -1    0    0    0  501 -0.00000000000E+00  0.00000000000E+00  0.32074699268E+02  0.32074699268E+02  0.00000000000E+00 0.  1.
          2   -1    0    0  501    0  0.00000000000E+00 -0.00000000000E+00 -0.11723282267E+04  0.11723282267E+04  0.00000000000E+00 0. -1.
         25    2    1    2    0    0 -0.11601511684E+03 -0.32886185045E+02 -0.26998459965E+03  0.32102660246E+03  0.12500154775E+03 0.  0.
         23    2    1    2    0    0  0.11601511684E+03  0.32886185045E+02 -0.87026892777E+03  0.88337632349E+03  0.91895123706E+02 0.  0.
          5    1    4    4  502    0  0.24382245716E+02  0.42774501430E+02 -0.47057179663E+03  0.47316388034E+03  0.47000000000E+01 0. -1.
         -5    1    3    3    0  503  0.24996197405E+02  0.76928544458E+01 -0.48547786664E+02  0.55344082648E+02  0.47000000000E+01 0. -1.
          5    1    3    3  503    0 -0.14101131424E+03 -0.40579039491E+02 -0.22143681299E+03  0.26568251982E+03  0.47000000000E+01 0. -1.
         -5    1    4    4    0  502  0.91632871124E+02 -0.98883163854E+01 -0.39969713115E+03  0.41021244315E+03  0.47000000000E+01 0.  1.
<mgrwt>
<rscale>  0 0.16788177E+03</rscale>
<asrwt>0</asrwt>
<pdfrwt beam="1">  1        2 0.18035815E+00 0.17368476E+03</pdfrwt>
<pdfrwt beam="2">  1       -2 0.49345702E-02 0.17368476E+03</pdfrwt>
<totfact> 0.40982078E+03</totfact>
</mgrwt>
</event>
<event>
 8    1  0.3551276E-004  0.1250509E+03  0.7546771E-02  0.1250819E+00
         -1   -1    0    0    0  501 -0.00000000000E+00  0.00000000000E+00  0.20975417482E+03  0.20975417482E+03  0.00000000000E+00 0.  1.
          1   -1    0    0  501    0  0.00000000000E+00 -0.00000000000E+00 -0.55890850774E+02  0.55890850774E+02  0.00000000000E+00 0. -1.
         25    2    1    2    0    0  0.34011308303E+01  0.67990735978E+00  0.99502108331E+02  0.15980739343E+03  0.12500281384E+03 0.  0.
         23    2    1    2    0    0 -0.34011308303E+01 -0.67990735978E+00  0.54361215718E+02  0.10583763217E+03  0.90743774679E+02 0.  0.
          5    1    4    4  502    0  0.18241371824E+02  0.34762701323E+02  0.30443488842E+01  0.39655404543E+02  0.47000000000E+01 0. -1.
         -5    1    3    3    0  503 -0.43825405028E+01  0.31886308029E+02  0.11800497239E+03  0.12240591003E+03  0.47000000000E+01 0.  1.
          5    1    3    3  503    0  0.77836713332E+01 -0.31206400669E+02 -0.18502864062E+02  0.37401483402E+02  0.47000000000E+01 0.  1.
         -5    1    4    4    0  502 -0.21642502655E+02 -0.35442608683E+02  0.51316866834E+02  0.66182227622E+02  0.47000000000E+01 0.  1.
<mgrwt>
<rscale>  0 0.11543796E+03</rscale>
<asrwt>0</asrwt>
<pdfrwt beam="1">  1        1 0.85985925E-02 0.12505092E+03</pdfrwt>
<pdfrwt beam="2">  1       -1 0.32269873E-01 0.12505092E+03</pdfrwt>
<totfact> 0.66860375E+03</totfact>
</mgrwt>
</event>
<event>
 8    1  0.3551276E-004  0.1678130E+03  0.7546771E-02  0.1186601E+00
          1   -1    0    0  501    0  0.00000000000E+00  0.00000000000E+00  0.15571641712E+03  0.15571641712E+03  0.00000000000E+00 0. -1.
         -1   -1    0    0    0  501 -0.00000000000E+00 -0.00000000000E+00 -0.16907332239E+03  0.16907332239E+03  0.00000000000E+00 0.  1.
         25    2    1    2    0    0  0.94152437395E+02  0.60575378487E+02 -0.49737464074E+02  0.17502865287E+03  0.12500862389E+03 0.  0.
         23    2    1    2    0    0 -0.94152437395E+02 -0.60575378487E+02  0.36380558807E+02  0.14976108664E+03  0.92578507581E+02 0.  0.
          5    1    4    4  502    0 -0.28626672003E+02  0.22960772845E+02  0.20532631932E+02  0.42312674386E+02  0.47000000000E+01 0. -1.
         -5    1    3    3    0  503  0.10679967960E+03  0.29085305197E+01 -0.43594128142E+02  0.11548666209E+03  0.47000000000E+01 0. -1.
          5    1    3    3  503    0 -0.12647242202E+02  0.57666847968E+02 -0.61433359319E+01  0.59541990781E+02  0.47000000000E+01 0. -1.
         -5    1    4    4    0  502 -0.65525765392E+02 -0.83536151332E+02  0.15847926875E+02  0.10744841225E+03  0.47000000000E+01 0.  1.
<mgrwt>
<rscale>  0 0.16187024E+03</rscale>
<asrwt>0</asrwt>
<pdfrwt beam="1">  1        1 0.23956372E-01 0.16781303E+03</pdfrwt>
<pdfrwt beam="2">  1       -1 0.26011280E-01 0.16781303E+03</pdfrwt>
<totfact> 0.25761319E+03</totfact>
</mgrwt>
</event>
<event>
 8    1  0.3551276E-004  0.1488817E+03  0.7546771E-02  0.1210634E+00
         -2   -1    0    0    0  501 -0.00000000000E+00  0.00000000000E+00  0.17098151398E+02  0.17098151398E+02  0.00000000000E+00 0.  1.
          2   -1    0    0  501    0  0.00000000000E+00 -0.00000000000E+00 -0.11233837644E+04  0.11233837644E+04  0.00000000000E+00 0. -1.
         25    2    1    2    0    0 -0.62222991016E+02  0.51662442317E+02 -0.49570840646E+03  0.51758339654E+03  0.12500015835E+03 0.  0.
         23    2    1    2    0    0  0.62222991016E+02 -0.51662442317E+02 -0.61057720659E+03  0.62289851930E+03  0.93044782667E+02 0.  0.
          5    1    3    3  502    0  0.28791155584E+02  0.42288226383E+02 -0.11411588407E+03  0.12514691258E+03  0.47000000000E+01 0.  1.
         -5    1    4    4    0  503  0.14065941284E+02  0.26830546578E+02 -0.17552018999E+03  0.17817731625E+03  0.47000000000E+01 0.  1.
          5    1    4    4  503    0  0.48157049732E+02 -0.78492988894E+02 -0.43505701661E+03  0.44472120305E+03  0.47000000000E+01 0. -1.
         -5    1    3    3    0  502 -0.91014146599E+02  0.93742159338E+01 -0.38159252239E+03  0.39243648397E+03  0.47000000000E+01 0.  1.
<mgrwt>
<rscale>  0 0.14202158E+03</rscale>
<asrwt>0</asrwt>
<pdfrwt beam="1">  1        2 0.17282831E+00 0.14888166E+03</pdfrwt>
<pdfrwt beam="2">  1       -2 0.26304843E-02 0.14888166E+03</pdfrwt>
<totfact> 0.11066258E+04</totfact>
</mgrwt>
</event>
<event>
 8    1  0.3551276E-004  0.1481089E+03  0.7546771E-02  0.1212388E+00
         -3   -1    0    0    0  501 -0.00000000000E+00  0.00000000000E+00  0.11996945602E+03  0.11996945602E+03  0.00000000000E+00 0. -1.
          3   -1    0    0  501    0  0.00000000000E+00 -0.00000000000E+00 -0.19281313419E+03  0.19281313419E+03  0.00000000000E+00 0.  1.
         25    2    1    2    0    0  0.33118833607E+02  0.72197779919E+02  0.33637031155E+02  0.15188057200E+03  0.12500752666E+03 0.  0.
         23    2    1    2    0    0 -0.33118833607E+02 -0.72197779919E+02 -0.10648070932E+03  0.16090201821E+03  0.90785138882E+02 0.  0.
          5    1    4    4  502    0 -0.60145494276E+02 -0.24535277125E+02 -0.65047519092E+02  0.92047433670E+02  0.47000000000E+01 0. -1.
         -5    1    3    3    0  503  0.54268660812E+02  0.48034107379E+02  0.71566135968E+02  0.10196158510E+03  0.47000000000E+01 0. -1.
          5    1    3    3  503    0 -0.21149827205E+02  0.24163672541E+02 -0.37929104814E+02  0.49918986903E+02  0.47000000000E+01 0. -1.
         -5    1    4    4    0  502  0.27026660669E+02 -0.47662502795E+02 -0.41433190231E+02  0.68854584541E+02  0.47000000000E+01 0.  1.
<mgrwt>
<rscale>  0 0.14070151E+03</rscale>
<asrwt>0</asrwt>
<pdfrwt beam="1">  1        3 0.29663559E-01 0.14810894E+03</pdfrwt>
<pdfrwt beam="2">  1       -3 0.18456839E-01 0.14810894E+03</pdfrwt>
<totfact> 0.66467200E+02</totfact>
</mgrwt>
</event>
<event>
 8    1  0.3551276E-004  0.1285044E+03  0.7546771E-02  0.1243797E+00
         -1   -1    0    0    0  501 -0.00000000000E+00  0.00000000000E+00  0.25972223116E+02  0.25972223116E+02  0.00000000000E+00 0.  1.
          1   -1    0    0  501    0  0.00000000000E+00 -0.00000000000E+00 -0.49169150121E+03  0.49169150121E+03  0.00000000000E+00 0. -1.
         25    2    1    2    0    0 -0.29687589301E+02  0.23147569526E+01 -0.29175294550E+03  0.31879956151E+03  0.12500667243E+03 0.  0.
         23    2    1    2    0    0  0.29687589301E+02 -0.23147569526E+01 -0.17396633259E+03  0.19886416281E+03  0.91629467525E+02 0.  0.
          5    1    4    4  502    0  0.24327657414E+02 -0.35070623387E+02 -0.15393658589E+03  0.15981347257E+03  0.47000000000E+01 0. -1.
         -5    1    4    4    0  502  0.53599318869E+01  0.32755866434E+02 -0.20029746702E+02  0.39050690245E+02  0.47000000000E+01 0.  1.
          5    1    3    3  503    0 -0.92623842967E+01 -0.20267130217E+02  0.25250292955E+01  0.22913186226E+02  0.47000000000E+01 0.  1.
         -5    1    3    3    0  503 -0.20425205004E+02  0.22581887170E+02 -0.29427797480E+03  0.29588637528E+03  0.47000000000E+01 0.  1.
<mgrwt>
<rscale>  0 0.11957698E+03</rscale>
<asrwt>0</asrwt>
<pdfrwt beam="1">  1        1 0.75644839E-01 0.12850439E+03</pdfrwt>
<pdfrwt beam="2">  1       -1 0.39957270E-02 0.12850439E+03</pdfrwt>
<totfact> 0.10772548E+04</totfact>
</mgrwt>
</event>
<event>
 8    1  0.3551276E-004  0.1254844E+03  0.7546771E-02  0.1249513E+00
          3   -1    0    0  501    0  0.00000000000E+00  0.00000000000E+00  0.49457060183E+03  0.49457060183E+03  0.00000000000E+00 0. -1.
         -3   -1    0    0    0  501 -0.00000000000E+00 -0.00000000000E+00 -0.25335353284E+02  0.25335353284E+02  0.00000000000E+00 0.  1.
         25    2    1    2    0    0  0.75619474619E+01  0.79265411724E+01  0.32830984789E+03  0.35147360426E+03  0.12500530056E+03 0.  0.
         23    2    1    2    0    0 -0.75619474619E+01 -0.79265411724E+01  0.14092540065E+03  0.16843235085E+03  0.91594078183E+02 0.  0.
          5    1    4    4  502    0 -0.35049131560E+02 -0.37024779845E+02  0.68115492740E+02  0.85212007939E+02  0.47000000000E+01 0. -1.
         -5    1    3    3    0  503 -0.23053359200E+02  0.58523144218E+02  0.13023375049E+03  0.14470430383E+03  0.47000000000E+01 0. -1.
          5    1    3    3  503    0  0.30615306662E+02 -0.50596603045E+02  0.19807609740E+03  0.20676930044E+03  0.47000000000E+01 0. -1.
         -5    1    4    4    0  502  0.27487184098E+02  0.29098238673E+02  0.72809907914E+02  0.83220342910E+02  0.47000000000E+01 0.  1.
<mgrwt>
<rscale>  0 0.11619308E+03</rscale>
<asrwt>0</asrwt>
<pdfrwt beam="1">  1        3 0.76087778E-01 0.12548441E+03</pdfrwt>
<pdfrwt beam="2">  1       -3 0.38977470E-02 0.12548441E+03</pdfrwt>
<totfact> 0.12798436E+03</totfact>
</mgrwt>
</event>
<event>
 8    1  0.3551276E-004  0.1379286E+03  0.7546771E-02  0.1225605E+00
          1   -1    0    0  501    0  0.00000000000E+00  0.00000000000E+00  0.68358347453E+03  0.68358347453E+03  0.00000000000E+00 0. -1.
         -1   -1    0    0    0  501 -0.00000000000E+00 -0.00000000000E+00 -0.46096526296E+02  0.46096526296E+02  0.00000000000E+00 0.  1.
         25    2    1    2    0    0 -0.58169535770E+02  0.39018608011E+01  0.59184919592E+03  0.60770862883E+03  0.12500154974E+03 0.  0.
         23    2    1    2    0    0  0.58169535770E+02 -0.39018608011E+01  0.45637752316E+02  0.12197137199E+03  0.96929313112E+02 0.  0.
          5    1    4    4  502    0  0.57915199294E+02  0.27024541544E+02  0.59783360808E+02  0.87639239981E+02  0.47000000000E+01 0. -1.
         -5    1    3    3    0  503 -0.25800059762E+02 -0.60076973205E+02  0.30883760095E+03  0.31571765797E+03  0.47000000000E+01 0.  1.
          5    1    3    3  503    0 -0.32369476009E+02  0.63978834006E+02  0.28301159498E+03  0.29199097087E+03  0.47000000000E+01 0.  1.
         -5    1    4    4    0  502  0.25433647652E+00 -0.30926402345E+02 -0.14145608492E+02  0.34332132014E+02  0.47000000000E+01 0.  1.
<mgrwt>
<rscale>  0 0.13125550E+03</rscale>
<asrwt>0</asrwt>
<pdfrwt beam="1">  1        1 0.10516668E+00 0.13792863E+03</pdfrwt>
<pdfrwt beam="2">  1       -1 0.70917737E-02 0.13792863E+03</pdfrwt>
<totfact> 0.29597459E+03</totfact>
</mgrwt>
</event>
<event>
 8    1  0.3551276E-004  0.1432643E+03  0.7546771E-02  0.1219409E+00
          1   -1    0    0  501    0  0.00000000000E+00  0.00000000000E+00  0.30244230998E+03  0.30244230998E+03  0.00000000000E+00 0. -1.
         -1   -1    0    0    0  501 -0.00000000000E+00 -0.00000000000E+00 -0.57565384957E+02  0.57565384957E+02  0.00000000000E+00 0.  1.
         25    2    1    2    0    0 -0.25610845989E+02  0.65117292855E+02  0.98214429636E+02  0.17369722686E+03  0.12501389990E+03 0.  0.
         23    2    1    2    0    0  0.25610845989E+02 -0.65117292855E+02  0.14666249539E+03  0.18631046807E+03  0.91134656967E+02 0.  0.
          5    1    4    4  502    0 -0.24468264711E+02 -0.34591445999E+02  0.10746553236E+03  0.11561226042E+03  0.47000000000E+01 0. -1.
         -5    1    3    3    0  503  0.22344773678E+02 -0.13716667823E+02 -0.12559350242E+02  0.29449332172E+02  0.47000000000E+01 0.  1.
          5    1    3    3  503    0 -0.47955619667E+02  0.78833960677E+02  0.11077377988E+03  0.14424789469E+03  0.47000000000E+01 0.  1.
         -5    1    4    4    0  502  0.50079110700E+02 -0.30525846856E+02  0.39196963022E+02  0.70698207650E+02  0.47000000000E+01 0.  1.
<mgrwt>
<rscale>  0 0.13557580E+03</rscale>
<asrwt>0</asrwt>
<pdfrwt beam="1">  1        1 0.46529585E-01 0.14326427E+03</pdfrwt>
<pdfrwt beam="2">  1       -1 0.88562132E-02 0.14326427E+03</pdfrwt>
<totfact> 0.61164833E+03</totfact>
</mgrwt>
</event>
<event>
 8    1  0.3551276E-004  0.1266052E+03  0.7546771E-02  0.1242367E+00
         -2   -1    0    0    0  501 -0.00000000000E+00  0.00000000000E+00  0.30944119730E+03  0.30944119730E+03  0.00000000000E+00 0.  1.
          2   -1    0    0  501    0  0.00000000000E+00 -0.00000000000E+00 -0.43056393731E+02  0.43056393731E+02  0.00000000000E+00 0. -1.
         25    2    1    2    0    0  0.14737883732E+02 -0.13669266850E+02  0.13428830264E+03  0.18455953557E+03  0.12499927948E+03 0.  0.
         23    2    1    2    0    0 -0.14737883732E+02  0.13669266850E+02  0.13209650093E+03  0.16793805547E+03  0.10173323371E+03 0.  0.
          5    1    3    3  502    0 -0.17811903356E+02  0.34463932894E+02  0.10119602416E+01  0.39091439411E+02  0.47000000000E+01 0. -1.
         -5    1    3    3    0  502  0.32549787088E+02 -0.48133199743E+02  0.13327634239E+03  0.14546809615E+03  0.47000000000E+01 0. -1.
          5    1    4    4  503    0 -0.10814002004E+02  0.51067034131E+02  0.33229156069E+02  0.62056840295E+02  0.47000000000E+01 0. -1.
         -5    1    4    4    0  503 -0.39238817275E+01 -0.37397767282E+02  0.98867344864E+02  0.10588121517E+03  0.47000000000E+01 0.  1.
<mgrwt>
<rscale>  0 0.12044351E+03</rscale>
<asrwt>0</asrwt>
<pdfrwt beam="1">  1        2 0.66240608E-02 0.12660519E+03</pdfrwt>
<pdfrwt beam="2">  1       -2 0.47606337E-01 0.12660519E+03</pdfrwt>
<totfact> 0.43533219E+03</totfact>
</mgrwt>
</event>
<event>
 8    1  0.3551276E-004  0.1268319E+03  0.7546771E-02  0.1244612E+00
         -2   -1    0    0    0  501 -0.00000000000E+00  0.00000000000E+00  0.13646194208E+02  0.13646194208E+02  0.00000000000E+00 0.  1.
          2   -1    0    0  501    0  0.00000000000E+00 -0.00000000000E+00 -0.93080832426E+03  0.93080832426E+03  0.00000000000E+00 0. -1.
         25    2    1    2    0    0  0.19618718768E+02  0.87132763970E+01 -0.51672411076E+03  0.53206215867E+03  0.12500207492E+03 0.  0.
         23    2    1    2    0    0 -0.19618718768E+02 -0.87132763970E+01 -0.40043801929E+03  0.41239235980E+03  0.96208293893E+02 0.  0.
          5    1    3    3  502    0 -0.51823967586E+02 -0.12423508330E+01 -0.26978363404E+03  0.27475910585E+03  0.47000000000E+01 0. -1.
         -5    1    3    3    0  502  0.71442686354E+02  0.99556272300E+01 -0.24694047672E+03  0.25730305282E+03  0.47000000000E+01 0. -1.
          5    1    4    4  503    0  0.10540768388E+02  0.31029529856E+02 -0.27992376492E+03  0.28187469501E+03  0.47000000000E+01 0. -1.
         -5    1    4    4    0  503 -0.30159487156E+02 -0.39742806253E+02 -0.12051425437E+03  0.13051766479E+03  0.47000000000E+01 0.  1.
<mgrwt>
<rscale>  0 0.11908638E+03</rscale>
<asrwt>0</asrwt>
<pdfrwt beam="1">  1        2 0.14320132E+00 0.12683191E+03</pdfrwt>
<pdfrwt beam="2">  1       -2 0.20994139E-02 0.12683191E+03</pdfrwt>
<totfact> 0.19782751E+04</totfact>
</mgrwt>
</event>
<event>
 8    1  0.3551276E-004  0.3503216E+03  0.7546771E-02  0.1063598E+00
          2   -1    0    0  501    0  0.00000000000E+00  0.00000000000E+00  0.29364309135E+03  0.29364309135E+03  0.00000000000E+00 0. -1.
         -2   -1    0    0    0  501 -0.00000000000E+00 -0.00000000000E+00 -0.49305895264E+03  0.49305895264E+03  0.00000000000E+00 0.  1.
         25    2    1    2    0    0  0.32619341931E+02  0.32563215250E+03 -0.26693368301E+03  0.44043027416E+03  0.12499966023E+03 0.  0.
         23    2    1    2    0    0 -0.32619341931E+02 -0.32563215250E+03  0.67517821725E+02  0.34627176984E+03  0.90802875115E+02 0.  0.
          5    1    4    4  502    0  0.18197581156E+02 -0.13981727732E+03  0.60354304204E+02  0.15344300256E+03  0.47000000000E+01 0. -1.
         -5    1    3    3    0  503  0.38658174466E+02  0.58599517645E+02 -0.12403461356E+02  0.71444340397E+02  0.47000000000E+01 0. -1.
          5    1    3    3  503    0 -0.60388325347E+01  0.26703263485E+03 -0.25453022166E+03  0.36898593376E+03  0.47000000000E+01 0. -1.
         -5    1    4    4    0  502 -0.50816923087E+02 -0.18581487518E+03  0.71635175207E+01  0.19282876728E+03  0.47000000000E+01 0.  1.
<mgrwt>
<rscale>  0 0.34761641E+03</rscale>
<asrwt>0</asrwt>
<pdfrwt beam="1">  1        2 0.45175861E-01 0.35032162E+03</pdfrwt>
<pdfrwt beam="2">  1       -2 0.75855222E-01 0.35032162E+03</pdfrwt>
<totfact> 0.17972846E+02</totfact>
</mgrwt>
</event>
<event>
 8    1  0.3551276E-004  0.1332623E+03  0.7546771E-02  0.1235134E+00
         -2   -1    0    0    0  501 -0.00000000000E+00  0.00000000000E+00  0.25767371934E+02  0.25767371934E+02  0.00000000000E+00 0.  1.
          2   -1    0    0  501    0  0.00000000000E+00 -0.00000000000E+00 -0.54176240046E+03  0.54176240046E+03  0.00000000000E+00 0. -1.
         25    2    1    2    0    0 -0.46183923610E+02 -0.60148545646E+00 -0.29436952173E+03  0.32312886297E+03  0.12500212069E+03 0.  0.
         23    2    1    2    0    0  0.46183923610E+02  0.60148545646E+00 -0.22162550679E+03  0.24440090942E+03  0.92090296332E+02 0.  0.
          5    1    4    4  502    0  0.78988792951E+01 -0.37411328188E+02 -0.14843916455E+03  0.15335669318E+03  0.47000000000E+01 0. -1.
         -5    1    4    4    0  502  0.38285044315E+02  0.38012813645E+02 -0.73186342239E+02  0.91044216235E+02  0.47000000000E+01 0.  1.
          5    1    3    3  503    0 -0.83345403116E+02 -0.73844723250E+01 -0.25477268124E+03  0.26820178179E+03  0.47000000000E+01 0.  1.
         -5    1    3    3    0  503  0.37161479505E+02  0.67829868685E+01 -0.39596840495E+02  0.54927081181E+02  0.47000000000E+01 0.  1.
<mgrwt>
<rscale>  0 0.12495830E+03</rscale>
<asrwt>0</asrwt>
<pdfrwt beam="1">  1        2 0.83348058E-01 0.13326232E+03</pdfrwt>
<pdfrwt beam="2">  1       -2 0.39642113E-02 0.13326232E+03</pdfrwt>
<totfact> 0.14962649E+04</totfact>
</mgrwt>
</event>
<event>
 8    1  0.3551276E-004  0.1253000E+03  0.7546771E-02  0.1252528E+00
         -1   -1    0    0    0  501 -0.00000000000E+00  0.00000000000E+00  0.34062434307E+02  0.34062434307E+02  0.00000000000E+00 0.  1.
          1   -1    0    0  501    0  0.00000000000E+00 -0.00000000000E+00 -0.36166203090E+03  0.36166203090E+03  0.00000000000E+00 0. -1.
         25    2    1    2    0    0  0.86885600412E+00 -0.85910248998E+01 -0.24691280956E+03  0.27688632022E+03  0.12500215271E+03 0.  0.
         23    2    1    2    0    0 -0.86885600412E+00  0.85910248998E+01 -0.80686787037E+02  0.11883814499E+03  0.86819274829E+02 0.  0.
          5    1    3    3  502    0  0.78143848255E+01 -0.58467815755E+02 -0.64238622796E+02  0.87339800482E+02  0.47000000000E+01 0. -1.
         -5    1    3    3    0  502 -0.69455288214E+01  0.49876790856E+02 -0.18267418676E+03  0.18954651974E+03  0.47000000000E+01 0. -1.
          5    1    4    4  503    0 -0.22605756996E+02  0.14502468880E+02 -0.89980446551E+02  0.94020809476E+02  0.47000000000E+01 0. -1.
         -5    1    4    4    0  503  0.21736900992E+02 -0.59114439800E+01  0.92936595145E+01  0.24817335510E+02  0.47000000000E+01 0.  1.
<mgrwt>
<rscale>  0 0.11445949E+03</rscale>
<asrwt>0</asrwt>
<pdfrwt beam="1">  1        1 0.55640312E-01 0.12530004E+03</pdfrwt>
<pdfrwt beam="2">  1       -1 0.52403745E-02 0.12530004E+03</pdfrwt>
<totfact> 0.10646351E+04</totfact>
</mgrwt>
</event>
<event>
 8    1  0.3551276E-004  0.1651890E+03  0.7546771E-02  0.1190938E+00
          2   -1    0    0  501    0  0.00000000000E+00  0.00000000000E+00  0.18879564713E+03  0.18879564713E+03  0.00000000000E+00 0. -1.
         -2   -1    0    0    0  501 -0.00000000000E+00 -0.00000000000E+00 -0.13699820501E+03  0.13699820501E+03  0.00000000000E+00 0.  1.
         25    2    1    2    0    0 -0.10292056170E+03 -0.32696280826E+02  0.81617622663E+02  0.18425208970E+03  0.12500282969E+03 0.  0.
         23    2    1    2    0    0  0.10292056170E+03  0.32696280826E+02 -0.29820180538E+02  0.14154176244E+03  0.86505135955E+02 0.  0.
          5    1    3    3  502    0  0.13365694014E+02  0.22684097835E+02  0.41307021599E+02  0.49209451373E+02  0.47000000000E+01 0. -1.
         -5    1    4    4    0  503  0.78417863938E+02 -0.17327784528E+02 -0.56668131813E+01  0.80646241530E+02  0.47000000000E+01 0.  1.
          5    1    4    4  503    0  0.24502697763E+02  0.50024065355E+02 -0.24153367357E+02  0.60895520911E+02  0.47000000000E+01 0. -1.
         -5    1    3    3    0  502 -0.11628625572E+03 -0.55380378661E+02  0.40310601064E+02  0.13504263833E+03  0.47000000000E+01 0. -1.
<mgrwt>
<rscale>  0 0.15803097E+03</rscale>
<asrwt>0</asrwt>
<pdfrwt beam="1">  1        2 0.29045484E-01 0.16518897E+03</pdfrwt>
<pdfrwt beam="2">  1       -2 0.21076647E-01 0.16518897E+03</pdfrwt>
<totfact> 0.33953843E+03</totfact>
</mgrwt>
</event>
<event>
 8    1  0.3551276E-004  0.1812812E+03  0.7546771E-02  0.1172053E+00
         -1   -1    0    0    0  501 -0.00000000000E+00  0.00000000000E+00  0.76101424772E+03  0.76101424772E+03  0.00000000000E+00 0.  1.
          1   -1    0    0  501    0  0.00000000000E+00 -0.00000000000E+00 -0.38238048748E+02  0.38238048748E+02  0.00000000000E+00 0. -1.
         25    2    1    2    0    0  0.24669838519E+02  0.12895555407E+03  0.38187767991E+03  0.42272144274E+03  0.12499887949E+03 0.  0.
         23    2    1    2    0    0 -0.24669838519E+02 -0.12895555407E+03  0.34089851906E+03  0.37653085373E+03  0.91244439046E+02 0.  0.
          5    1    4    4  502    0 -0.15090235897E+02 -0.10724480170E+03  0.15547276685E+03  0.18953372772E+03  0.47000000000E+01 0. -1.
         -5    1    4    4    0  502 -0.95796026221E+01 -0.21710752373E+02  0.18542575221E+03  0.18699712601E+03  0.47000000000E+01 0.  1.
          5    1    3    3  503    0  0.72001439277E+02  0.49346497445E+02  0.20892341023E+03  0.22647376319E+03  0.47000000000E+01 0. -1.
         -5    1    3    3    0  503 -0.47331600758E+02  0.79609056630E+02  0.17295426968E+03  0.19624767955E+03  0.47000000000E+01 0. -1.
<mgrwt>
<rscale>  0 0.17567802E+03</rscale>
<asrwt>0</asrwt>
<pdfrwt beam="1">  1        1 0.58827773E-02 0.18128115E+03</pdfrwt>
<pdfrwt beam="2">  1       -1 0.11707910E+00 0.18128115E+03</pdfrwt>
<totfact> 0.92371134E+02</totfact>
</mgrwt>
</event>
<event>
 8    1  0.3551276E-004  0.1563915E+03  0.7546771E-02  0.1200975E+00
         -1   -1    0    0    0  501 -0.00000000000E+00  0.00000000000E+00  0.69899884533E+02  0.69899884533E+02  0.00000000000E+00 0.  1.
          1   -1    0    0  501    0  0.00000000000E+00 -0.00000000000E+00 -0.30054436343E+03  0.30054436343E+03  0.00000000000E+00 0. -1.
         25    2    1    2    0    0  0.87955475525E+02 -0.33154544004E+02 -0.14989935782E+03  0.21662898315E+03  0.12499163733E+03 0.  0.
         23    2    1    2    0    0 -0.87955475525E+02  0.33154544004E+02 -0.80745121084E+02  0.15381526482E+03  0.91126130444E+02 0.  0.
          5    1    4    4  502    0 -0.10011645245E+03  0.10013892739E+02 -0.77432002108E+02  0.12704875855E+03  0.47000000000E+01 0. -1.
         -5    1    4    4    0  502  0.12160976921E+02  0.23140651265E+02 -0.33131189754E+01  0.26766506271E+02  0.47000000000E+01 0.  1.
          5    1    3    3  503    0  0.23878365756E+02 -0.88241284853E+01 -0.14550170419E+03  0.14778659451E+03  0.47000000000E+01 0. -1.
         -5    1    3    3    0  503  0.64077109769E+02 -0.24330415519E+02 -0.43976536260E+01  0.68842388635E+02  0.47000000000E+01 0. -1.
<mgrwt>
<rscale>  0 0.14959228E+03</rscale>
<asrwt>0</asrwt>
<pdfrwt beam="1">  1        1 0.46237594E-01 0.15639149E+03</pdfrwt>
<pdfrwt beam="2">  1       -1 0.10753828E-01 0.15639149E+03</pdfrwt>
<totfact> 0.46050589E+03</totfact>
</mgrwt>
</event>
<event>
 8    1  0.3551276E-004  0.1840870E+03  0.7546771E-02  0.1169098E+00
          2   -1    0    0  501    0  0.00000000000E+00  0.00000000000E+00  0.81415538728E+02  0.81415538728E+02  0.00000000000E+00 0. -1.
         -2   -1    0    0    0  501 -0.00000000000E+00 -0.00000000000E+00 -0.53087622504E+03  0.53087622504E+03  0.00000000000E+00 0.  1.
         25    2    1    2    0    0  0.85434395350E+02 -0.10471807873E+03 -0.40206759106E+03  0.44220624625E+03  0.12499241784E+03 0.  0.
         23    2    1    2    0    0 -0.85434395350E+02  0.10471807873E+03 -0.47393095251E+02  0.17008551752E+03  0.91750018371E+02 0.  0.
          5    1    3    3  502    0  0.10021201655E+02  0.26438286376E+02 -0.10441900049E+03  0.10828123167E+03  0.47000000000E+01 0. -1.
         -5    1    4    4    0  503 -0.10568710178E+02  0.82746112192E+02 -0.36461683974E+02  0.91160085102E+02  0.47000000000E+01 0.  1.
          5    1    4    4  503    0 -0.74865685172E+02  0.21971966537E+02 -0.10931411277E+02  0.78925432417E+02  0.47000000000E+01 0. -1.
         -5    1    3    3    0  502  0.75413193695E+02 -0.13115636510E+03 -0.29764859057E+03  0.33392501458E+03  0.47000000000E+01 0. -1.
<mgrwt>
<rscale>  0 0.17866792E+03</rscale>
<asrwt>0</asrwt>
<pdfrwt beam="1">  1        2 0.12525467E-01 0.18408698E+03</pdfrwt>
<pdfrwt beam="2">  1       -2 0.81673270E-01 0.18408698E+03</pdfrwt>
<totfact> 0.65441505E+02</totfact>
</mgrwt>
</event>
<event>
 8    1  0.3551276E-004  0.1298175E+03  0.7546771E-02  0.1242722E+00
          1   -1    0    0  501    0  0.00000000000E+00  0.00000000000E+00  0.21012768406E+03  0.21012768406E+03  0.00000000000E+00 0. -1.
         -1   -1    0    0    0  501 -0.00000000000E+00 -0.00000000000E+00 -0.60703186432E+02  0.60703186432E+02  0.00000000000E+00 0.  1.
         25    2    1    2    0    0 -0.27433960682E+02 -0.21796376875E+02  0.76619003708E+02  0.15074171515E+03  0.12499955485E+03 0.  0.
         23    2    1    2    0    0  0.27433960682E+02  0.21796376875E+02  0.72805493920E+02  0.12008915535E+03  0.88842900916E+02 0.  0.
          5    1    3    3  502    0  0.17368537392E+02 -0.36481126584E+02 -0.18338251724E+02  0.44619728420E+02  0.47000000000E+01 0.  1.
         -5    1    3    3    0  502 -0.44802498074E+02  0.14684749709E+02  0.94957255433E+02  0.10612198673E+03  0.47000000000E+01 0.  1.
          5    1    4    4  503    0 -0.31908403861E+02  0.46388772522E+01  0.33430760420E+02  0.46683735512E+02  0.47000000000E+01 0. -1.
         -5    1    4    4    0  503  0.59342364543E+02  0.17157499623E+02  0.39374733500E+02  0.73405419834E+02  0.47000000000E+01 0.  1.
<mgrwt>
<rscale>  0 0.12022753E+03</rscale>
<asrwt>0</asrwt>
<pdfrwt beam="1">  1        1 0.32327336E-01 0.12981754E+03</pdfrwt>
<pdfrwt beam="2">  1       -1 0.93389519E-02 0.12981754E+03</pdfrwt>
<totfact> 0.87961949E+03</totfact>
</mgrwt>
</event>
<event>
 8    1  0.3551276E-004  0.1423973E+03  0.7546771E-02  0.1220332E+00
         -1   -1    0    0    0  501 -0.00000000000E+00  0.00000000000E+00  0.70827179381E+02  0.70827179381E+02  0.00000000000E+00 0.  1.
          1   -1    0    0  501    0  0.00000000000E+00 -0.00000000000E+00 -0.25822955775E+03  0.25822955775E+03  0.00000000000E+00 0. -1.
         25    2    1    2    0    0  0.52647732585E+02 -0.43352600048E+02 -0.52078819182E+02  0.15162187878E+03  0.12500303612E+03 0.  0.
         23    2    1    2    0    0 -0.52647732585E+02  0.43352600048E+02 -0.13532355919E+03  0.17743485836E+03  0.92300767123E+02 0.  0.
          5    1    3    3  502    0  0.23905478541E+01  0.39358002504E+02  0.35914227304E+01  0.39871736824E+02  0.47000000000E+01 0. -1.
         -5    1    3    3    0  502  0.50257184731E+02 -0.82710602552E+02 -0.55670241912E+02  0.11175014195E+03  0.47000000000E+01 0. -1.
          5    1    4    4  503    0 -0.27870011426E+02  0.14004499500E+02 -0.13510553059E+03  0.13873881194E+03  0.47000000000E+01 0. -1.
         -5    1    4    4    0  503 -0.24777721159E+02  0.29348100549E+02 -0.21802859823E+00  0.38696046415E+02  0.47000000000E+01 0.  1.
<mgrwt>
<rscale>  0 0.13492029E+03</rscale>
<asrwt>0</asrwt>
<pdfrwt beam="1">  1        1 0.39727624E-01 0.14239730E+03</pdfrwt>
<pdfrwt beam="2">  1       -1 0.10896489E-01 0.14239730E+03</pdfrwt>
<totfact> 0.54181396E+03</totfact>
</mgrwt>
</event>
<event>
 8    1  0.3551276E-004  0.2518773E+03  0.7546771E-02  0.1114455E+00
          2   -1    0    0  501    0  0.00000000000E+00  0.00000000000E+00  0.14914484442E+04  0.14914484442E+04  0.00000000000E+00 0. -1.
         -2   -1    0    0    0  501 -0.00000000000E+00 -0.00000000000E+00 -0.47485659323E+02  0.47485659323E+02  0.00000000000E+00 0.  1.
         25    2    1    2    0    0 -0.17876786159E+03 -0.12593607118E+03  0.43733695622E+03  0.50468383488E+03  0.12499727019E+03 0.  0.
         23    2    1    2    0    0  0.17876786159E+03  0.12593607118E+03  0.10066258287E+04  0.10342502686E+04  0.92521440213E+02 0.  0.
          5    1    4    4  502    0  0.11597278328E+03  0.33021534109E+02  0.62124646725E+03  0.63285809725E+03  0.47000000000E+01 0. -1.
         -5    1    3    3    0  503 -0.95002173454E+02 -0.82544122500E+02  0.36378862392E+03  0.38497168469E+03  0.47000000000E+01 0.  1.
          5    1    3    3  503    0 -0.83765688140E+02 -0.43391948678E+02  0.73548332301E+02  0.11971215019E+03  0.47000000000E+01 0.  1.
         -5    1    4    4    0  502  0.62795078313E+02  0.92914537070E+02  0.38537936141E+03  0.40139217140E+03  0.47000000000E+01 0.  1.
<mgrwt>
<rscale>  0 0.24818784E+03</rscale>
<asrwt>0</asrwt>
<pdfrwt beam="1">  1        2 0.22945357E+00 0.25187727E+03</pdfrwt>
<pdfrwt beam="2">  1       -2 0.73054872E-02 0.25187727E+03</pdfrwt>
<totfact> 0.15057184E+03</totfact>
</mgrwt>
</event>
<event>
 8    1  0.3551276E-004  0.1419736E+03  0.7546771E-02  0.1222146E+00
         -2   -1    0    0    0  501 -0.00000000000E+00  0.00000000000E+00  0.75693220972E+02  0.75693220972E+02  0.00000000000E+00 0.  1.
          2   -1    0    0  501    0  0.00000000000E+00 -0.00000000000E+00 -0.21301584434E+03  0.21301584434E+03  0.00000000000E+00 0. -1.
         25    2    1    2    0    0  0.66140545851E+02  0.12550699760E+02 -0.67813833118E+02  0.15733791613E+03  0.12499764806E+03 0.  0.
         23    2    1    2    0    0 -0.66140545851E+02 -0.12550699760E+02 -0.69508790249E+02  0.13137114918E+03  0.88852771740E+02 0.  0.
          5    1    3    3  502    0 -0.25922804634E+02  0.23669618420E+02 -0.52354160210E+02  0.63208312171E+02  0.47000000000E+01 0.  1.
         -5    1    4    4    0  503 -0.51537684066E+01 -0.26548399151E+02 -0.62462693965E+02  0.68227977865E+02  0.47000000000E+01 0.  1.
          5    1    4    4  503    0 -0.60986777444E+02  0.13997699390E+02 -0.70460962844E+01  0.63143171318E+02  0.47000000000E+01 0. -1.
         -5    1    3    3    0  502  0.92063350485E+02 -0.11118918660E+02 -0.15459672909E+02  0.94129603957E+02  0.47000000000E+01 0.  1.
<mgrwt>
<rscale>  0 0.13364450E+03</rscale>
<asrwt>0</asrwt>
<pdfrwt beam="1">  1        2 0.32771668E-01 0.14197360E+03</pdfrwt>
<pdfrwt beam="2">  1       -2 0.11645111E-01 0.14197360E+03</pdfrwt>
<totfact> 0.78502317E+03</totfact>
</mgrwt>
</event>
<event>
 8    1  0.3551276E-004  0.1724697E+03  0.7546771E-02  0.1180701E+00
          2   -1    0    0  501    0  0.00000000000E+00  0.00000000000E+00  0.74223894261E+03  0.74223894261E+03  0.00000000000E+00 0. -1.
         -2   -1    0    0    0  501 -0.00000000000E+00 -0.00000000000E+00 -0.45817900354E+02  0.45817900354E+02  0.00000000000E+00 0.  1.
         25    2    1    2    0    0  0.10355022522E+03  0.58291236775E+02  0.55041850421E+03  0.57680700731E+03  0.12500110589E+03 0.  0.
         23    2    1    2    0    0 -0.10355022522E+03 -0.58291236775E+02  0.14600253805E+03  0.21124983566E+03  0.95860495103E+02 0.  0.
          5    1    3    3  502    0 -0.36764539001E+01 -0.29848426094E+02  0.62670589944E+02  0.69671641989E+02  0.47000000000E+01 0.  1.
         -5    1    3    3    0  502  0.10722667912E+03  0.88139662869E+02  0.48774791427E+03  0.50713536532E+03  0.47000000000E+01 0.  1.
          5    1    4    4  503    0 -0.50086598876E+02 -0.21807369890E+02  0.38267154206E+01  0.54963283375E+02  0.47000000000E+01 0. -1.
         -5    1    4    4    0  503 -0.53463626343E+02 -0.36483866885E+02  0.14217582263E+03  0.15628655228E+03  0.47000000000E+01 0.  1.
<mgrwt>
<rscale>  0 0.16729262E+03</rscale>
<asrwt>0</asrwt>
<pdfrwt beam="1">  1        2 0.11419060E+00 0.17246969E+03</pdfrwt>
<pdfrwt beam="2">  1       -2 0.70489083E-02 0.17246969E+03</pdfrwt>
<totfact> 0.44150795E+03</totfact>
</mgrwt>
</event>
<event>
 8    1  0.3551276E-004  0.1644177E+03  0.7546771E-02  0.1190835E+00
         -1   -1    0    0    0  501 -0.00000000000E+00  0.00000000000E+00  0.23499725297E+02  0.23499725297E+02  0.00000000000E+00 0.  1.
          1   -1    0    0  501    0  0.00000000000E+00 -0.00000000000E+00 -0.10940523448E+04  0.10940523448E+04  0.00000000000E+00 0. -1.
         25    2    1    2    0    0 -0.10274849700E+03  0.29202541410E+02 -0.40119311415E+03  0.43357710685E+03  0.12499260248E+03 0.  0.
         23    2    1    2    0    0  0.10274849700E+03 -0.29202541410E+02 -0.66935950537E+03  0.68397496328E+03  0.91485304251E+02 0.  0.
          5    1    4    4  502    0  0.10635848618E+03 -0.16234540524E+01 -0.59485781042E+03  0.60431173065E+03  0.47000000000E+01 0. -1.
         -5    1    3    3    0  503 -0.45925188683E+02  0.54270739228E+02 -0.83187762311E+02  0.10952958454E+03  0.47000000000E+01 0.  1.
          5    1    3    3  503    0 -0.56823308318E+02 -0.25068197818E+02 -0.31800535184E+03  0.32404752230E+03  0.47000000000E+01 0.  1.
         -5    1    4    4    0  502 -0.36099891763E+01 -0.27579087357E+02 -0.74501694956E+02  0.79663232627E+02  0.47000000000E+01 0.  1.
<mgrwt>
<rscale>  0 0.15812069E+03</rscale>
<asrwt>0</asrwt>
<pdfrwt beam="1">  1        1 0.16831579E+00 0.16441774E+03</pdfrwt>
<pdfrwt beam="2">  1       -1 0.36153414E-02 0.16441774E+03</pdfrwt>
<totfact> 0.38486638E+03</totfact>
</mgrwt>
</event>
<event>
 8    1  0.3551276E-004  0.1318154E+03  0.7546771E-02  0.1238243E+00
         -3   -1    0    0    0  501 -0.00000000000E+00  0.00000000000E+00  0.54046264366E+03  0.54046264366E+03  0.00000000000E+00 0.  1.
          3   -1    0    0  501    0  0.00000000000E+00 -0.00000000000E+00 -0.25923159730E+02  0.25923159730E+02  0.00000000000E+00 0. -1.
         25    2    1    2    0    0 -0.15838273656E+02 -0.38736885164E+02  0.23379264399E+03  0.26839204428E+03  0.12499556738E+03 0.  0.
         23    2    1    2    0    0  0.15838273656E+02  0.38736885164E+02  0.28074683995E+03  0.29799375912E+03  0.90719871844E+02 0.  0.
          5    1    4    4  502    0  0.47906376362E+02  0.22870724615E+02  0.96421803991E+02  0.11016962025E+03  0.47000000000E+01 0. -1.
         -5    1    4    4    0  502 -0.32068102706E+02  0.15866160549E+02  0.18432503596E+03  0.18782413887E+03  0.47000000000E+01 0.  1.
          5    1    3    3  503    0 -0.61700081721E+02  0.25596995577E+01  0.16293957906E+03  0.17431250262E+03  0.47000000000E+01 0. -1.
         -5    1    3    3    0  503  0.45861808066E+02 -0.41296584721E+02  0.70853064928E+02  0.94079541657E+02  0.47000000000E+01 0. -1.
<mgrwt>
<rscale>  0 0.12299117E+03</rscale>
<asrwt>0</asrwt>
<pdfrwt beam="1">  1        3 0.39881788E-02 0.13181536E+03</pdfrwt>
<pdfrwt beam="2">  1       -3 0.83148091E-01 0.13181536E+03</pdfrwt>
<totfact> 0.10260726E+03</totfact>
</mgrwt>
</event>
<event>
 8    1  0.3551276E-004  0.1714070E+03  0.7546771E-02  0.1182804E+00
          1   -1    0    0  501    0  0.00000000000E+00  0.00000000000E+00  0.28311783716E+03  0.28311783716E+03  0.00000000000E+00 0. -1.
         -1   -1    0    0    0  501 -0.00000000000E+00 -0.00000000000E+00 -0.90314907011E+02  0.90314907011E+02  0.00000000000E+00 0.  1.
         25    2    1    2    0    0 -0.11165113333E+03  0.35917678907E+02  0.10077985296E+03  0.19883897414E+03  0.12499721453E+03 0.  0.
         23    2    1    2    0    0  0.11165113333E+03 -0.35917678907E+02  0.92023077183E+02  0.17459377003E+03  0.90877294017E+02 0.  0.
          5    1    4    4  502    0  0.38976880164E+02 -0.27171076004E+02 -0.10156483523E+02  0.48812997409E+02  0.47000000000E+01 0. -1.
         -5    1    3    3    0  503  0.14262807437E+02  0.27766722483E+02  0.57076473078E+02  0.65224476483E+02  0.47000000000E+01 0.  1.
          5    1    3    3  503    0 -0.12591394077E+03  0.81509564240E+01  0.43703379887E+02  0.13361449765E+03  0.47000000000E+01 0.  1.
         -5    1    4    4    0  502  0.72674253166E+02 -0.87466029038E+01  0.10217956071E+03  0.12578077262E+03  0.47000000000E+01 0.  1.
<mgrwt>
<rscale>  0 0.16533340E+03</rscale>
<asrwt>0</asrwt>
<pdfrwt beam="1">  1        1 0.43556590E-01 0.17140700E+03</pdfrwt>
<pdfrwt beam="2">  1       -1 0.13894601E-01 0.17140700E+03</pdfrwt>
<totfact> 0.33469446E+03</totfact>
</mgrwt>
</event>
<event>
 8    1  0.3551276E-004  0.1395258E+03  0.7546771E-02  0.1225560E+00
         -2   -1    0    0    0  501 -0.00000000000E+00  0.00000000000E+00  0.20609900378E+02  0.20609900378E+02  0.00000000000E+00 0.  1.
          2   -1    0    0  501    0  0.00000000000E+00 -0.00000000000E+00 -0.75471751117E+03  0.75471751117E+03  0.00000000000E+00 0. -1.
         25    2    1    2    0    0  0.32678189712E+02  0.52668128982E+02 -0.38605055332E+03  0.41049052699E+03  0.12500258853E+03 0.  0.
         23    2    1    2    0    0 -0.32678189712E+02 -0.52668128982E+02 -0.34805705747E+03  0.36483688455E+03  0.90113490566E+02 0.  0.
          5    1    4    4  502    0 -0.37069043198E+02  0.10858228082E+02 -0.19755060110E+03  0.20134633117E+03  0.47000000000E+01 0. -1.
         -5    1    4    4    0  502  0.43908534865E+01 -0.63526357064E+02 -0.15050645637E+03  0.16349055338E+03  0.47000000000E+01 0.  1.
          5    1    3    3  503    0  0.76455053660E+02  0.17586576904E+02 -0.27464861150E+03  0.28567221201E+03  0.47000000000E+01 0.  1.
         -5    1    3    3    0  503 -0.43776863948E+02  0.35081552078E+02 -0.11140194182E+03  0.12481831498E+03  0.47000000000E+01 0.  1.
<mgrwt>
<rscale>  0 0.13128569E+03</rscale>
<asrwt>0</asrwt>
<pdfrwt beam="1">  1        2 0.11611040E+00 0.13952578E+03</pdfrwt>
<pdfrwt beam="2">  1       -2 0.31707536E-02 0.13952578E+03</pdfrwt>
<totfact> 0.14222803E+04</totfact>
</mgrwt>
</event>
<event>
 8    1  0.3551276E-004  0.1400255E+03  0.7546771E-02  0.1224408E+00
          3   -1    0    0  501    0  0.00000000000E+00  0.00000000000E+00  0.30243493522E+03  0.30243493522E+03  0.00000000000E+00 0. -1.
         -3   -1    0    0    0  501 -0.00000000000E+00 -0.00000000000E+00 -0.86185723664E+02  0.86185723664E+02  0.00000000000E+00 0.  1.
         25    2    1    2    0    0  0.24568498948E+02 -0.58177059947E+02  0.23756122883E+03  0.27575803090E+03  0.12497588855E+03 0.  0.
         23    2    1    2    0    0 -0.24568498948E+02  0.58177059947E+02 -0.21312017272E+02  0.11286262798E+03  0.91080125551E+02 0.  0.
          5    1    4    4  502    0 -0.21006799134E+02 -0.18796970805E+02  0.89453304285E+01  0.29945294418E+02  0.47000000000E+01 0. -1.
         -5    1    3    3    0  503  0.42105818297E+02 -0.87326355194E+02  0.12611688907E+03  0.15914255230E+03  0.47000000000E+01 0. -1.
          5    1    3    3  503    0 -0.17537319348E+02  0.29149295248E+02  0.11144433976E+03  0.11661547860E+03  0.47000000000E+01 0. -1.
         -5    1    4    4    0  502 -0.35616998146E+01  0.76974030752E+02 -0.30257347701E+02  0.82917333565E+02  0.47000000000E+01 0.  1.
<mgrwt>
<rscale>  0 0.13207540E+03</rscale>
<asrwt>0</asrwt>
<pdfrwt beam="1">  1        3 0.46528451E-01 0.14002555E+03</pdfrwt>
<pdfrwt beam="2">  1       -3 0.13259342E-01 0.14002555E+03</pdfrwt>
<totfact> 0.49325622E+02</totfact>
</mgrwt>
</event>
<event>
 8    1  0.3551276E-004  0.1466201E+03  0.7546771E-02  0.1215296E+00
         -2   -1    0    0    0  501 -0.00000000000E+00  0.00000000000E+00  0.72392622767E+02  0.72392622767E+02  0.00000000000E+00 0.  1.
          2   -1    0    0  501    0  0.00000000000E+00 -0.00000000000E+00 -0.32509084995E+03  0.32509084995E+03  0.00000000000E+00 0. -1.
         25    2    1    2    0    0 -0.75005574008E+02 -0.15646180402E+02 -0.23817020173E+03  0.27968283665E+03  0.12500721991E+03 0.  0.
         23    2    1    2    0    0  0.75005574008E+02  0.15646180402E+02 -0.14528025446E+02  0.11780063606E+03  0.88290923883E+02 0.  0.
          5    1    3    3  502    0 -0.46503281619E+02 -0.57967787531E+01 -0.83350465190E+01  0.47830124877E+02  0.47000000000E+01 0. -1.
         -5    1    4    4    0  503  0.34499397661E+01 -0.28137273519E+02  0.97494663668E+01  0.30343868242E+02  0.47000000000E+01 0.  1.
          5    1    4    4  503    0  0.71555634242E+02  0.43783453921E+02 -0.24277491813E+02  0.87456767821E+02  0.47000000000E+01 0. -1.
         -5    1    3    3    0  502 -0.28502292389E+02 -0.98494016488E+01 -0.22983515521E+03  0.23185271177E+03  0.47000000000E+01 0. -1.
<mgrwt>
<rscale>  0 0.13854790E+03</rscale>
<asrwt>0</asrwt>
<pdfrwt beam="1">  1        2 0.50013975E-01 0.14662007E+03</pdfrwt>
<pdfrwt beam="2">  1       -2 0.11137327E-01 0.14662007E+03</pdfrwt>
<totfact> 0.53800415E+03</totfact>
</mgrwt>
</event>
<event>
 8    1  0.3551276E-004  0.2223831E+03  0.7546771E-02  0.1135264E+00
         -1   -1    0    0    0  501 -0.00000000000E+00  0.00000000000E+00  0.26853952210E+03  0.26853952210E+03  0.00000000000E+00 0.  1.
          1   -1    0    0  501    0  0.00000000000E+00 -0.00000000000E+00 -0.17232364137E+03  0.17232364137E+03  0.00000000000E+00 0. -1.
         25    2    1    2    0    0 -0.18392476784E+03 -0.65456358111E+00  0.29285105282E+02  0.22430303052E+03  0.12500193371E+03 0.  0.
         23    2    1    2    0    0  0.18392476784E+03  0.65456358111E+00  0.66930775452E+02  0.21656013295E+03  0.92681248382E+02 0.  0.
          5    1    3    3  502    0 -0.17192125523E+03 -0.37433459664E+02  0.45958938968E+02  0.18191342989E+03  0.47000000000E+01 0. -1.
         -5    1    4    4    0  503  0.99882940998E+02  0.43071584502E+01  0.83918477862E+02  0.13061222930E+03  0.47000000000E+01 0.  1.
          5    1    4    4  503    0  0.84041826841E+02 -0.36525948690E+01 -0.16987702410E+02  0.85947903647E+02  0.47000000000E+01 0. -1.
         -5    1    3    3    0  502 -0.12003512609E+02  0.36778896083E+02 -0.16673833686E+02  0.42389600633E+02  0.47000000000E+01 0. -1.
<mgrwt>
<rscale>  0 0.21815782E+03</rscale>
<asrwt>0</asrwt>
<pdfrwt beam="1">  1        1 0.26511330E-01 0.22238308E+03</pdfrwt>
<pdfrwt beam="2">  1       -1 0.41313772E-01 0.22238308E+03</pdfrwt>
<totfact> 0.10316013E+03</totfact>
</mgrwt>
</event>
<event>
 8    1  0.3551276E-004  0.2389668E+03  0.7546771E-02  0.1123010E+00
         -2   -1    0    0    0  501 -0.00000000000E+00  0.00000000000E+00  0.24915402489E+02  0.24915402489E+02  0.00000000000E+00 0.  1.
          2   -1    0    0  501    0  0.00000000000E+00 -0.00000000000E+00 -0.21587402355E+04  0.21587402355E+04  0.00000000000E+00 0. -1.
         25    2    1    2    0    0  0.10034035847E+03 -0.17722469042E+03 -0.11506002830E+04  0.11751536689E+04  0.12501342295E+03 0.  0.
         23    2    1    2    0    0 -0.10034035847E+03  0.17722469042E+03 -0.98322455010E+03  0.10085019692E+04  0.94174983051E+02 0.  0.
          5    1    4    4  502    0 -0.27416103171E+02  0.13911438661E+03 -0.60772707317E+03  0.62406629514E+03  0.47000000000E+01 0. -1.
         -5    1    3    3    0  503  0.77249182592E+02 -0.34736341186E+02 -0.59824078625E+03  0.60422527086E+03  0.47000000000E+01 0.  1.
          5    1    3    3  503    0  0.23091175878E+02 -0.14248834923E+03 -0.55235949671E+03  0.57092839803E+03  0.47000000000E+01 0.  1.
         -5    1    4    4    0  502 -0.72924255298E+02  0.38110303812E+02 -0.37549747693E+03  0.38443567401E+03  0.47000000000E+01 0.  1.
<mgrwt>
<rscale>  0 0.23523313E+03</rscale>
<asrwt>0</asrwt>
<pdfrwt beam="1">  1        2 0.33211391E+00 0.23896681E+03</pdfrwt>
<pdfrwt beam="2">  1       -2 0.38331386E-02 0.23896681E+03</pdfrwt>
<totfact> 0.17992654E+03</totfact>
</mgrwt>
</event>
<event>
 8    1  0.3551276E-004  0.1708505E+03  0.7546771E-02  0.1184192E+00
         -1   -1    0    0    0  501 -0.00000000000E+00  0.00000000000E+00  0.14436744638E+03  0.14436744638E+03  0.00000000000E+00 0.  1.
          1   -1    0    0  501    0  0.00000000000E+00 -0.00000000000E+00 -0.17548792881E+03  0.17548792881E+03  0.00000000000E+00 0. -1.
         25    2    1    2    0    0 -0.81888405700E+02 -0.82824692641E+02 -0.35665415489E+02  0.17453343983E+03  0.12499703619E+03 0.  0.
         23    2    1    2    0    0  0.81888405700E+02  0.82824692641E+02  0.45449330634E+01  0.14532193537E+03  0.86788062451E+02 0.  0.
          5    1    4    4  502    0  0.55287922662E+02  0.61165116890E+02 -0.37632125054E+02  0.90753472399E+02  0.47000000000E+01 0. -1.
         -5    1    4    4    0  502  0.26600483038E+02  0.21659575751E+02  0.42177058117E+02  0.54568462971E+02  0.47000000000E+01 0.  1.
          5    1    3    3  503    0  0.25338268117E+02 -0.47419318210E+02  0.55051768811E+01  0.54249576433E+02  0.47000000000E+01 0.  1.
         -5    1    3    3    0  503 -0.10722667382E+03 -0.35405374431E+02 -0.41170592370E+02  0.12028386339E+03  0.47000000000E+01 0.  1.
<mgrwt>
<rscale>  0 0.16405592E+03</rscale>
<asrwt>0</asrwt>
<pdfrwt beam="1">  1        1 0.26998143E-01 0.17085052E+03</pdfrwt>
<pdfrwt beam="2">  1       -1 0.22210376E-01 0.17085052E+03</pdfrwt>
<totfact> 0.28747681E+03</totfact>
</mgrwt>
</event>
<event>
 8    1  0.3551276E-004  0.1422866E+03  0.7546771E-02  0.1221484E+00
         -3   -1    0    0    0  501 -0.00000000000E+00  0.00000000000E+00  0.19237993391E+03  0.19237993391E+03  0.00000000000E+00 0.  1.
          3   -1    0    0  501    0  0.00000000000E+00 -0.00000000000E+00 -0.85876381592E+02  0.85876381592E+02  0.00000000000E+00 0. -1.
         25    2    1    2    0    0  0.67101874018E+02 -0.10849878766E+02  0.40210531568E+02  0.14785925150E+03  0.12500036015E+03 0.  0.
         23    2    1    2    0    0 -0.67101874018E+02  0.10849878766E+02  0.66293020755E+02  0.13039706401E+03  0.89377001152E+02 0.  0.
          5    1    3    3  502    0 -0.14714335205E+01  0.27823214048E+02  0.60197525480E+02  0.66499085937E+02  0.47000000000E+01 0.  1.
         -5    1    4    4    0  503 -0.30299783445E+02  0.21750716726E+02  0.80783159715E+02  0.89102073200E+02  0.47000000000E+01 0.  1.
          5    1    4    4  503    0 -0.36802090572E+02 -0.10900837960E+02 -0.14490138960E+02  0.41294990808E+02  0.47000000000E+01 0. -1.
         -5    1    3    3    0  502  0.68573307538E+02 -0.38673092814E+02 -0.19986993912E+02  0.81360165561E+02  0.47000000000E+01 0.  1.
<mgrwt>
<rscale>  0 0.13410854E+03</rscale>
<asrwt>0</asrwt>
<pdfrwt beam="1">  1        3 0.13211751E-01 0.14228658E+03</pdfrwt>
<pdfrwt beam="2">  1       -3 0.29596913E-01 0.14228658E+03</pdfrwt>
<totfact> 0.11787514E+03</totfact>
</mgrwt>
</event>
<event>
 8    1  0.3551276E-004  0.1395363E+03  0.7546771E-02  0.1225518E+00
          2   -1    0    0  501    0  0.00000000000E+00  0.00000000000E+00  0.21335228947E+03  0.21335228947E+03  0.00000000000E+00 0. -1.
         -2   -1    0    0    0  501 -0.00000000000E+00 -0.00000000000E+00 -0.15519125939E+03  0.15519125939E+03  0.00000000000E+00 0.  1.
         25    2    1    2    0    0 -0.57894254007E+02  0.22337201101E+02  0.16466267933E+03  0.21583369998E+03  0.12497876974E+03 0.  0.
         23    2    1    2    0    0  0.57894254007E+02 -0.22337201101E+02 -0.10650164925E+03  0.15270984887E+03  0.90149883249E+02 0.  0.
          5    1    3    3  502    0 -0.22966400794E+02  0.73636169615E+02  0.93030247418E+02  0.12093989406E+03  0.47000000000E+01 0. -1.
         -5    1    4    4    0  503  0.28593434861E+02  0.76844437064E+01 -0.10635222942E+03  0.11049670535E+03  0.47000000000E+01 0.  1.
          5    1    4    4  503    0  0.29300819146E+02 -0.30021644807E+02 -0.14941983444E+00  0.42213143520E+02  0.47000000000E+01 0. -1.
         -5    1    3    3    0  502 -0.34927853213E+02 -0.51298968515E+02  0.71632431908E+02  0.94893805919E+02  0.47000000000E+01 0. -1.
<mgrwt>
<rscale>  0 0.13131434E+03</rscale>
<asrwt>0</asrwt>
<pdfrwt beam="1">  1        2 0.32823429E-01 0.13953633E+03</pdfrwt>
<pdfrwt beam="2">  1       -2 0.23875578E-01 0.13953633E+03</pdfrwt>
<totfact> 0.23802860E+03</totfact>
</mgrwt>
</event>
<event>
 8    1  0.3551276E-004  0.2299928E+03  0.7546771E-02  0.1129708E+00
          2   -1    0    0  501    0  0.00000000000E+00  0.00000000000E+00  0.72107738119E+03  0.72107738119E+03  0.00000000000E+00 0.  1.
         -2   -1    0    0    0  501 -0.00000000000E+00 -0.00000000000E+00 -0.68250161567E+02  0.68250161567E+02  0.00000000000E+00 0. -1.
         25    2    1    2    0    0  0.15046890313E+03 -0.12095877508E+03  0.32161076509E+03  0.39538611138E+03  0.12499910707E+03 0.  0.
         23    2    1    2    0    0 -0.15046890313E+03  0.12095877508E+03  0.33121645453E+03  0.39394143138E+03  0.90628889047E+02 0.  0.
          5    1    3    3  502    0  0.14006120638E+03 -0.38130308933E+02  0.18468592304E+03  0.23495114846E+03  0.47000000000E+01 0.  1.
         -5    1    4    4    0  503 -0.11643185309E+03  0.40514290156E+02  0.22238364643E+03  0.25431154186E+03  0.47000000000E+01 0.  1.
          5    1    4    4  503    0 -0.34037050033E+02  0.80444484926E+02  0.10883280810E+03  0.13962988953E+03  0.47000000000E+01 0. -1.
         -5    1    3    3    0  502  0.10407696749E+02 -0.82828466149E+02  0.13692484205E+03  0.16043496292E+03  0.47000000000E+01 0.  1.
<mgrwt>
<rscale>  0 0.22569390E+03</rscale>
<asrwt>0</asrwt>
<pdfrwt beam="1">  1        2 0.11093498E+00 0.22999281E+03</pdfrwt>
<pdfrwt beam="2">  1       -2 0.10500025E-01 0.22999281E+03</pdfrwt>
<totfact> 0.24690676E+03</totfact>
</mgrwt>
</event>
<event>
 8    1  0.3551276E-004  0.1375741E+03  0.7546771E-02  0.1228451E+00
          2   -1    0    0  501    0  0.00000000000E+00  0.00000000000E+00  0.12238254970E+03  0.12238254970E+03  0.00000000000E+00 0. -1.
         -2   -1    0    0    0  501 -0.00000000000E+00 -0.00000000000E+00 -0.24796620924E+03  0.24796620924E+03  0.00000000000E+00 0.  1.
         25    2    1    2    0    0 -0.14997421529E+02  0.55476071999E+02  0.64541319143E+02  0.15196123622E+03  0.12499647284E+03 0.  0.
         23    2    1    2    0    0  0.14997421529E+02 -0.55476071999E+02 -0.19012497868E+03  0.21838752271E+03  0.90791438716E+02 0.  0.
          5    1    4    4  502    0  0.42225615788E+02 -0.11430824849E+02 -0.39812326505E+02  0.59336141829E+02  0.47000000000E+01 0. -1.
         -5    1    4    4    0  502 -0.27228194259E+02 -0.44045247150E+02 -0.15031265217E+03  0.15905138089E+03  0.47000000000E+01 0.  1.
          5    1    3    3  503    0  0.55005703223E+02  0.29292507581E+02  0.25385465324E+02  0.67455097933E+02  0.47000000000E+01 0.  1.
         -5    1    3    3    0  503 -0.70003124752E+02  0.26183564418E+02  0.39155853819E+02  0.84506138292E+02  0.47000000000E+01 0.  1.
<mgrwt>
<rscale>  0 0.12933159E+03</rscale>
<asrwt>0</asrwt>
<pdfrwt beam="1">  1        2 0.18828085E-01 0.13757411E+03</pdfrwt>
<pdfrwt beam="2">  1       -2 0.38148647E-01 0.13757411E+03</pdfrwt>
<totfact> 0.18895257E+03</totfact>
</mgrwt>
</event>
<event>
 8    1  0.3551276E-004  0.2208826E+03  0.7546771E-02  0.1136536E+00
         -2   -1    0    0    0  501 -0.00000000000E+00  0.00000000000E+00  0.25853726045E+02  0.25853726045E+02  0.00000000000E+00 0.  1.
          2   -1    0    0  501    0  0.00000000000E+00 -0.00000000000E+00 -0.17691394754E+04  0.17691394754E+04  0.00000000000E+00 0. -1.
         25    2    1    2    0    0 -0.18127529465E+03  0.17454861631E+02 -0.79908163999E+03  0.82904799382E+03  0.12499481608E+03 0.  0.
         23    2    1    2    0    0  0.18127529465E+03 -0.17454861631E+02 -0.94420410937E+03  0.96594520762E+03  0.91451294911E+02 0.  0.
          5    1    4    4  502    0  0.89968372461E+02 -0.38547370571E+01 -0.68179085843E+03  0.68772816700E+03  0.47000000000E+01 0. -1.
         -5    1    4    4    0  502  0.91306922190E+02 -0.13600124574E+02 -0.26241325093E+03  0.27821704062E+03  0.47000000000E+01 0.  1.
          5    1    3    3  503    0 -0.17712073381E+03 -0.22769378609E+02 -0.68536989425E+03  0.70826843844E+03  0.47000000000E+01 0. -1.
         -5    1    3    3    0  503 -0.41545608366E+01  0.40224240240E+02 -0.11371174575E+03  0.12077955539E+03  0.47000000000E+01 0. -1.
<mgrwt>
<rscale>  0 0.21647846E+03</rscale>
<asrwt>0</asrwt>
<pdfrwt beam="1">  1        2 0.27217529E+00 0.22088257E+03</pdfrwt>
<pdfrwt beam="2">  1       -2 0.39774965E-02 0.22088257E+03</pdfrwt>
<totfact> 0.27245910E+03</totfact>
</mgrwt>
</event>
<event>
 8    1  0.3551276E-004  0.1289721E+03  0.7546771E-02  0.1242217E+00
         -2   -1    0    0    0  501 -0.00000000000E+00  0.00000000000E+00  0.15424296579E+03  0.15424296579E+03  0.00000000000E+00 0.  1.
          2   -1    0    0  501    0  0.00000000000E+00 -0.00000000000E+00 -0.10577278480E+03  0.10577278480E+03  0.00000000000E+00 0. -1.
         25    2    1    2    0    0 -0.24399870357E+02  0.20320441061E+02 -0.32027435131E+02  0.13288924805E+03  0.12500208658E+03 0.  0.
         23    2    1    2    0    0  0.24399870357E+02 -0.20320441061E+02  0.80497616118E+02  0.12712650253E+03  0.93128982846E+02 0.  0.
          5    1    3    3  502    0 -0.57844856550E+02  0.47000702828E+02 -0.45911832294E+02  0.87664587150E+02  0.47000000000E+01 0.  1.
         -5    1    4    4    0  503  0.56752303605E+02  0.40193649274E+01  0.53494882758E+02  0.78235361188E+02  0.47000000000E+01 0.  1.
          5    1    4    4  503    0 -0.32352433248E+02 -0.24339805988E+02  0.27002733360E+02  0.48891141340E+02  0.47000000000E+01 0. -1.
         -5    1    3    3    0  502  0.33444986193E+02 -0.26680261767E+02  0.13884397163E+02  0.45224660905E+02  0.47000000000E+01 0.  1.
<mgrwt>
<rscale>  0 0.12053505E+03</rscale>
<asrwt>0</asrwt>
<pdfrwt beam="1">  1        2 0.16272736E-01 0.12897207E+03</pdfrwt>
<pdfrwt beam="2">  1       -2 0.23729687E-01 0.12897207E+03</pdfrwt>
<totfact> 0.52319338E+03</totfact>
</mgrwt>
</event>
<event>
 8    1  0.3551276E-004  0.1491352E+03  0.7546771E-02  0.1210224E+00
         -2   -1    0    0    0  501 -0.00000000000E+00  0.00000000000E+00  0.78800479109E+02  0.78800479109E+02  0.00000000000E+00 0.  1.
          2   -1    0    0  501    0  0.00000000000E+00 -0.00000000000E+00 -0.23680802353E+03  0.23680802353E+03  0.00000000000E+00 0. -1.
         25    2    1    2    0    0 -0.73118182126E+02  0.35620900137E+02 -0.78492147090E+02  0.16852991377E+03  0.12500479030E+03 0.  0.
         23    2    1    2    0    0  0.73118182126E+02 -0.35620900137E+02 -0.79515397331E+02  0.14707858886E+03  0.93243207826E+02 0.  0.
          5    1    3    3  502    0  0.16753781898E+02  0.53524225353E+02 -0.20077538405E+02  0.59755580960E+02  0.47000000000E+01 0.  1.
         -5    1    3    3    0  502 -0.89871964024E+02 -0.17903325216E+02 -0.58414608685E+02  0.10877433281E+03  0.47000000000E+01 0.  1.
          5    1    4    4  503    0  0.19320636496E+02  0.25446884990E+02 -0.51673612116E+02  0.60935073148E+02  0.47000000000E+01 0. -1.
         -5    1    4    4    0  503  0.53797545630E+02 -0.61067785127E+02 -0.27841785215E+02  0.86143515717E+02  0.47000000000E+01 0.  1.
<mgrwt>
<rscale>  0 0.14233280E+03</rscale>
<asrwt>0</asrwt>
<pdfrwt beam="1">  1        2 0.36432003E-01 0.14913522E+03</pdfrwt>
<pdfrwt beam="2">  1       -2 0.12123151E-01 0.14913522E+03</pdfrwt>
<totfact> 0.65916713E+03</totfact>
</mgrwt>
</event>
<event>
 8    1  0.3551276E-004  0.1955825E+03  0.7546771E-02  0.1157994E+00
         -2   -1    0    0    0  501 -0.00000000000E+00  0.00000000000E+00  0.77495556049E+02  0.77495556049E+02  0.00000000000E+00 0.  1.
          2   -1    0    0  501    0  0.00000000000E+00 -0.00000000000E+00 -0.46688834296E+03  0.46688834296E+03  0.00000000000E+00 0. -1.
         25    2    1    2    0    0  0.14699218827E+03 -0.31983924751E+02 -0.14648651776E+03  0.24435795492E+03  0.12499134127E+03 0.  0.
         23    2    1    2    0    0 -0.14699218827E+03  0.31983924751E+02 -0.24290626915E+03  0.30002594409E+03  0.91555647984E+02 0.  0.
          5    1    3    3  502    0  0.72127642129E+00 -0.47498291569E+02 -0.27369261780E+02  0.55025216329E+02  0.47000000000E+01 0. -1.
         -5    1    3    3    0  502  0.14627091185E+03  0.15514366818E+02 -0.11911725598E+03  0.18933273859E+03  0.47000000000E+01 0. -1.
          5    1    4    4  503    0 -0.56671681394E+02  0.46390917465E+02 -0.16190446416E+03  0.17776091305E+03  0.47000000000E+01 0. -1.
         -5    1    4    4    0  503 -0.90320506877E+02 -0.14406992715E+02 -0.81001804990E+02  0.12226503103E+03  0.47000000000E+01 0.  1.
<mgrwt>
<rscale>  0 0.19051926E+03</rscale>
<asrwt>0</asrwt>
<pdfrwt beam="1">  1        2 0.71828977E-01 0.19558249E+03</pdfrwt>
<pdfrwt beam="2">  1       -2 0.11922393E-01 0.19558249E+03</pdfrwt>
<totfact> 0.33101917E+03</totfact>
</mgrwt>
</event>
<event>
 8    1  0.3592737E-004  0.2688937E+03  0.7546771E-02  0.1103916E+00
         -2   -1    0    0    0  501 -0.00000000000E+00  0.00000000000E+00  0.12489572500E+03  0.12489572500E+03  0.00000000000E+00 0.  1.
          2   -1    0    0  501    0  0.00000000000E+00 -0.00000000000E+00 -0.55916528465E+03  0.55916528465E+03  0.00000000000E+00 0. -1.
         25    2    1    2    0    0  0.23083270055E+03  0.58265320382E+02 -0.26609811008E+03  0.37830149587E+03  0.12500093754E+03 0.  0.
         23    2    1    2    0    0 -0.23083270055E+03 -0.58265320382E+02 -0.16817144957E+03  0.30575951379E+03  0.92350747815E+02 0.  0.
          5    1    4    4  502    0 -0.10319032271E+03 -0.59361617777E+01 -0.24102569718E+02  0.10623796207E+03  0.47000000000E+01 0. -1.
         -5    1    3    3    0  503  0.17528202767E+03 -0.66694026875E+01 -0.21895952250E+03  0.28059514010E+03  0.47000000000E+01 0.  1.
          5    1    3    3  503    0  0.55550672881E+02  0.64934723070E+02 -0.47138587578E+02  0.97706355763E+02  0.47000000000E+01 0.  1.
         -5    1    4    4    0  502 -0.12764237784E+03 -0.52329158605E+02 -0.14406887985E+03  0.19952155172E+03  0.47000000000E+01 0.  1.
<mgrwt>
<rscale>  0 0.26544371E+03</rscale>
<asrwt>0</asrwt>
<pdfrwt beam="1">  1        2 0.86025427E-01 0.26889369E+03</pdfrwt>
<pdfrwt beam="2">  1       -2 0.19214727E-01 0.26889369E+03</pdfrwt>
<totfact> 0.12344458E+03</totfact>
</mgrwt>
</event>
<event>
 8    1  0.3551276E-004  0.1696886E+03  0.7546771E-02  0.1184815E+00
          1   -1    0    0  501    0  0.00000000000E+00  0.00000000000E+00  0.11121522548E+04  0.11121522548E+04  0.00000000000E+00 0. -1.
         -1   -1    0    0    0  501 -0.00000000000E+00 -0.00000000000E+00 -0.26518896371E+02  0.26518896371E+02  0.00000000000E+00 0.  1.
         25    2    1    2    0    0 -0.80363732942E+02  0.81921605487E+02  0.79991661508E+03  0.81771683684E+03  0.12499902059E+03 0.  0.
         23    2    1    2    0    0  0.80363732942E+02 -0.81921605487E+02  0.28571674336E+03  0.32095431434E+03  0.90598760709E+02 0.  0.
          5    1    4    4  502    0 -0.17534459875E+02 -0.20320668740E+02  0.84846345226E+02  0.89114416114E+02  0.47000000000E+01 0. -1.
         -5    1    4    4    0  502  0.97898192816E+02 -0.61600936747E+02  0.20087039813E+03  0.23183989823E+03  0.47000000000E+01 0.  1.
          5    1    3    3  503    0 -0.25272207443E+02  0.79085140074E+02  0.68639651171E+03  0.69141550831E+03  0.47000000000E+01 0. -1.
         -5    1    3    3    0  503 -0.55091525498E+02  0.28364654126E+01  0.11352010338E+03  0.12630132853E+03  0.47000000000E+01 0. -1.
<mgrwt>
<rscale>  0 0.16348747E+03</rscale>
<asrwt>0</asrwt>
<pdfrwt beam="1">  1        1 0.17110031E+00 0.16968864E+03</pdfrwt>
<pdfrwt beam="2">  1       -1 0.40798311E-02 0.16968864E+03</pdfrwt>
<totfact> 0.31291107E+03</totfact>
</mgrwt>
</event>
<event>
 8    1  0.3551276E-004  0.1423739E+03  0.7546771E-02  0.1220941E+00
          1   -1    0    0  501    0  0.00000000000E+00  0.00000000000E+00  0.59108731224E+03  0.59108731224E+03  0.00000000000E+00 0. -1.
         -1   -1    0    0    0  501 -0.00000000000E+00 -0.00000000000E+00 -0.30357883360E+02  0.30357883360E+02  0.00000000000E+00 0.  1.
         25    2    1    2    0    0 -0.45681521655E+02  0.50547804027E+02  0.21728687616E+03  0.25977663944E+03  0.12501373498E+03 0.  0.
         23    2    1    2    0    0  0.45681521655E+02 -0.50547804027E+02  0.34344255272E+03  0.36166855616E+03  0.90606156434E+02 0.  0.
          5    1    4    4  502    0  0.26957631171E+02 -0.10117447873E+02  0.29198847140E+03  0.29344238627E+03  0.47000000000E+01 0. -1.
         -5    1    3    3    0  503 -0.84454765696E+02  0.48652062980E+02  0.18463173514E+03  0.20883150697E+03  0.47000000000E+01 0.  1.
          5    1    3    3  503    0  0.38773244041E+02  0.18957410470E+01  0.32655141017E+02  0.50945132470E+02  0.47000000000E+01 0.  1.
         -5    1    4    4    0  502  0.18723890484E+02 -0.40430356154E+02  0.51454081328E+02  0.68226169897E+02  0.47000000000E+01 0.  1.
<mgrwt>
<rscale>  0 0.13449041E+03</rscale>
<asrwt>0</asrwt>
<pdfrwt beam="1">  1        1 0.90936500E-01 0.14237386E+03</pdfrwt>
<pdfrwt beam="2">  1       -1 0.46704441E-02 0.14237386E+03</pdfrwt>
<totfact> 0.67524210E+03</totfact>
</mgrwt>
</event>
<event>
 8    1  0.3551276E-004  0.1738285E+03  0.7546771E-02  0.1181040E+00
          2   -1    0    0  501    0  0.00000000000E+00  0.00000000000E+00  0.24746918984E+03  0.24746918984E+03  0.00000000000E+00 0. -1.
         -2   -1    0    0    0  501 -0.00000000000E+00 -0.00000000000E+00 -0.10664977553E+03  0.10664977553E+03  0.00000000000E+00 0.  1.
         25    2    1    2    0    0  0.73016606186E+02 -0.96231661946E+02  0.51655736690E+02  0.18134127523E+03  0.12499754169E+03 0.  0.
         23    2    1    2    0    0 -0.73016606186E+02  0.96231661946E+02  0.89163677614E+02  0.17277769014E+03  0.85498603876E+02 0.  0.
          5    1    3    3  502    0 -0.13142469202E+02 -0.52717623609E+02 -0.23038985532E+02  0.59200989773E+02  0.47000000000E+01 0. -1.
         -5    1    4    4    0  503 -0.47425169155E+02  0.55818518299E+02  0.22161150142E+01  0.73429250440E+02  0.47000000000E+01 0.  1.
          5    1    4    4  503    0 -0.25591437031E+02  0.40413143647E+02  0.86947562600E+02  0.99348439700E+02  0.47000000000E+01 0. -1.
         -5    1    3    3    0  502  0.86159075388E+02 -0.43514038336E+02  0.74694722222E+02  0.12214028546E+03  0.47000000000E+01 0. -1.
<mgrwt>
<rscale>  0 0.16697487E+03</rscale>
<asrwt>0</asrwt>
<pdfrwt beam="1">  1        2 0.38072183E-01 0.17382849E+03</pdfrwt>
<pdfrwt beam="2">  1       -2 0.16407658E-01 0.17382849E+03</pdfrwt>
<totfact> 0.38722560E+03</totfact>
</mgrwt>
</event>
<event>
 8    1  0.3551276E-004  0.1297796E+03  0.7546771E-02  0.1241660E+00
         -4   -1    0    0    0  501 -0.00000000000E+00  0.00000000000E+00  0.37008813888E+02  0.37008813888E+02  0.00000000000E+00 0. -1.
          4   -1    0    0  501    0  0.00000000000E+00 -0.00000000000E+00 -0.35264787771E+03  0.35264787771E+03  0.00000000000E+00 0.  1.
         25    2    1    2    0    0  0.47701562664E+01  0.34567741000E+02 -0.19828765151E+03  0.23698254075E+03  0.12500019509E+03 0.  0.
         23    2    1    2    0    0 -0.47701562664E+01 -0.34567741000E+02 -0.11735141231E+03  0.15267415085E+03  0.91216003287E+02 0.  0.
          5    1    4    4  502    0  0.30990501926E+02 -0.19903275947E+02 -0.99603746251E+01  0.38442823332E+02  0.47000000000E+01 0. -1.
         -5    1    4    4    0  502 -0.35760658192E+02 -0.14664465052E+02 -0.10739103769E+03  0.11423132751E+03  0.47000000000E+01 0.  1.
          5    1    3    3  503    0  0.56907547158E+02  0.46933802478E+02 -0.13512368655E+03  0.15401867226E+03  0.47000000000E+01 0.  1.
         -5    1    3    3    0  503 -0.52137390892E+02 -0.12366061478E+02 -0.63163964959E+02  0.82963868490E+02  0.47000000000E+01 0.  1.
<mgrwt>
<rscale>  0 0.12087517E+03</rscale>
<asrwt>0</asrwt>
<pdfrwt beam="1">  1        4 0.54253520E-01 0.12977955E+03</pdfrwt>
<pdfrwt beam="2">  1       -4 0.56936636E-02 0.12977955E+03</pdfrwt>
<totfact> 0.10371026E+03</totfact>
</mgrwt>
</event>
<event>
 8    1  0.3551276E-004  0.1561625E+03  0.7546771E-02  0.1200818E+00
          1   -1    0    0  501    0  0.00000000000E+00  0.00000000000E+00  0.42885195459E+03  0.42885195459E+03  0.00000000000E+00 0. -1.
         -1   -1    0    0    0  501 -0.00000000000E+00 -0.00000000000E+00 -0.48501007646E+02  0.48501007646E+02  0.00000000000E+00 0.  1.
         25    2    1    2    0    0  0.86242508161E+02 -0.36369997078E+02  0.19460098983E+03  0.24951207005E+03  0.12500472375E+03 0.  0.
         23    2    1    2    0    0 -0.86242508161E+02  0.36369997078E+02  0.18574995711E+03  0.22784089218E+03  0.92993971203E+02 0.  0.
          5    1    3    3  502    0 -0.94784342170E+01 -0.43060314918E+02  0.11984157793E+03  0.12778155281E+03  0.47000000000E+01 0. -1.
         -5    1    4    4    0  503 -0.40383480384E+01  0.29837584839E+02  0.74994744924E+01  0.31383464461E+02  0.47000000000E+01 0.  1.
          5    1    4    4  503    0 -0.82204160123E+02  0.65324122389E+01  0.17825048262E+03  0.19645742772E+03  0.47000000000E+01 0. -1.
         -5    1    3    3    0  502  0.95720942378E+02  0.66903178400E+01  0.74759411895E+02  0.12173051725E+03  0.47000000000E+01 0. -1.
<mgrwt>
<rscale>  0 0.14971920E+03</rscale>
<asrwt>0</asrwt>
<pdfrwt beam="1">  1        1 0.65977221E-01 0.15616250E+03</pdfrwt>
<pdfrwt beam="2">  1       -1 0.74616938E-02 0.15616250E+03</pdfrwt>
<totfact> 0.51388482E+03</totfact>
</mgrwt>
</event>
<event>
 8    1  0.3551276E-004  0.1562976E+03  0.7546771E-02  0.1201355E+00
         -1   -1    0    0    0  501 -0.00000000000E+00  0.00000000000E+00  0.59096203579E+02  0.59096203579E+02  0.00000000000E+00 0.  1.
          1   -1    0    0  501    0  0.00000000000E+00 -0.00000000000E+00 -0.34695853383E+03  0.34695853383E+03  0.00000000000E+00 0. -1.
         25    2    1    2    0    0 -0.89808474116E+02  0.27219014106E+02 -0.15554568783E+03  0.22050712082E+03  0.12498996991E+03 0.  0.
         23    2    1    2    0    0  0.89808474116E+02 -0.27219014106E+02 -0.13231664243E+03  0.18554761659E+03  0.90076564150E+02 0.  0.
          5    1    3    3  502    0 -0.80956316702E+00 -0.30332878517E+02 -0.91660347962E+02  0.96666686610E+02  0.47000000000E+01 0.  1.
         -5    1    3    3    0  502 -0.88998910949E+02  0.57551892623E+02 -0.63885339864E+02  0.12384043421E+03  0.47000000000E+01 0.  1.
          5    1    4    4  503    0  0.44322153885E+02 -0.33362924778E+02 -0.12753947446E+03  0.13916158098E+03  0.47000000000E+01 0. -1.
         -5    1    4    4    0  503  0.45486320231E+02  0.61439106723E+01 -0.47771679665E+01  0.46386035617E+02  0.47000000000E+01 0.  1.
<mgrwt>
<rscale>  0 0.14928457E+03</rscale>
<asrwt>0</asrwt>
<pdfrwt beam="1">  1        1 0.53378236E-01 0.15629757E+03</pdfrwt>
<pdfrwt beam="2">  1       -1 0.90917237E-02 0.15629757E+03</pdfrwt>
<totfact> 0.49778542E+03</totfact>
</mgrwt>
</event>
<event>
 8    1  0.3551276E-004  0.1257351E+03  0.7546771E-02  0.1252563E+00
         -2   -1    0    0    0  501 -0.00000000000E+00  0.00000000000E+00  0.32399630262E+02  0.32399630262E+02  0.00000000000E+00 0.  1.
          2   -1    0    0  501    0  0.00000000000E+00 -0.00000000000E+00 -0.42612885423E+03  0.42612885423E+03  0.00000000000E+00 0. -1.
         25    2    1    2    0    0 -0.46137895579E+01  0.12887830853E+02 -0.12920182990E+03  0.18028432456E+03  0.12498776578E+03 0.  0.
         23    2    1    2    0    0  0.46137895579E+01 -0.12887830853E+02 -0.26452739407E+03  0.27824415993E+03  0.85192059990E+02 0.  0.
          5    1    4    4  502    0 -0.23746430633E+02  0.77651592419E+01 -0.21951005899E+03  0.22097725372E+03  0.47000000000E+01 0. -1.
         -5    1    3    3    0  503 -0.59361042940E+02  0.27908166018E+02 -0.88564850048E+02  0.11031056982E+03  0.47000000000E+01 0. -1.
          5    1    3    3  503    0  0.54747253382E+02 -0.15020335166E+02 -0.40636979850E+02  0.69973754742E+02  0.47000000000E+01 0. -1.
         -5    1    4    4    0  502  0.28360220191E+02 -0.20652990094E+02 -0.45017335086E+02  0.57266906215E+02  0.47000000000E+01 0.  1.
<mgrwt>
<rscale>  0 0.11443954E+03</rscale>
<asrwt>0</asrwt>
<pdfrwt beam="1">  1        2 0.65558287E-01 0.12573514E+03</pdfrwt>
<pdfrwt beam="2">  1       -2 0.49845584E-02 0.12573514E+03</pdfrwt>
<totfact> 0.13750616E+04</totfact>
</mgrwt>
</event>
<event>
 8    1  0.3551276E-004  0.1274328E+03  0.7546771E-02  0.1247038E+00
         -2   -1    0    0    0  501 -0.00000000000E+00  0.00000000000E+00  0.10929226503E+02  0.10929226503E+02  0.00000000000E+00 0.  1.
          2   -1    0    0  501    0  0.00000000000E+00 -0.00000000000E+00 -0.11392082497E+04  0.11392082497E+04  0.00000000000E+00 0. -1.
         25    2    1    2    0    0  0.97228887218E+01 -0.22809305124E+02 -0.74650648001E+03  0.75730511664E+03  0.12499726409E+03 0.  0.
         23    2    1    2    0    0 -0.97228887218E+01  0.22809305124E+02 -0.38177254318E+03  0.39283235956E+03  0.89175047082E+02 0.  0.
          5    1    4    4  502    0 -0.17317554576E+02 -0.25264986998E+02 -0.25633644509E+03  0.25820278919E+03  0.47000000000E+01 0. -1.
         -5    1    4    4    0  502  0.75946658546E+01  0.48074292122E+02 -0.12543609809E+03  0.13462957037E+03  0.47000000000E+01 0.  1.
          5    1    3    3  503    0  0.63210250584E+02  0.10495235868E+02 -0.37808979141E+03  0.38350966888E+03  0.47000000000E+01 0. -1.
         -5    1    3    3    0  503 -0.53487361862E+02 -0.33304540991E+02 -0.36841668860E+03  0.37379544776E+03  0.47000000000E+01 0. -1.
<mgrwt>
<rscale>  0 0.11764254E+03</rscale>
<asrwt>0</asrwt>
<pdfrwt beam="1">  1        2 0.17526269E+00 0.12743279E+03</pdfrwt>
<pdfrwt beam="2">  1       -2 0.16814206E-02 0.12743279E+03</pdfrwt>
<totfact> 0.20585566E+04</totfact>
</mgrwt>
</event>
<event>
 8    1  0.3551276E-004  0.1368523E+03  0.7546771E-02  0.1230282E+00
         -1   -1    0    0    0  501 -0.00000000000E+00  0.00000000000E+00  0.30403210726E+02  0.30403210726E+02  0.00000000000E+00 0.  1.
          1   -1    0    0  501    0  0.00000000000E+00 -0.00000000000E+00 -0.48490987978E+03  0.48490987978E+03  0.00000000000E+00 0. -1.
         25    2    1    2    0    0 -0.45109691144E+02 -0.32703203214E+02 -0.27860512523E+03  0.31040194878E+03  0.12499668103E+03 0.  0.
         23    2    1    2    0    0  0.45109691144E+02  0.32703203214E+02 -0.17590154382E+03  0.20491114172E+03  0.89122607387E+02 0.  0.
          5    1    4    4  502    0  0.95539617236E+01  0.56543072990E+02 -0.12892790722E+03  0.14118389620E+03  0.47000000000E+01 0. -1.
         -5    1    4    4    0  502  0.35555729420E+02 -0.23839869776E+02 -0.46973636604E+02  0.63727245518E+02  0.47000000000E+01 0.  1.
          5    1    3    3  503    0 -0.43380897248E+01 -0.76524435184E+02 -0.15909940925E+03  0.17666216410E+03  0.47000000000E+01 0.  1.
         -5    1    3    3    0  503 -0.40771601419E+02  0.43821231970E+02 -0.11950571598E+03  0.13373978468E+03  0.47000000000E+01 0.  1.
<mgrwt>
<rscale>  0 0.12811375E+03</rscale>
<asrwt>0</asrwt>
<pdfrwt beam="1">  1        1 0.74601516E-01 0.13685231E+03</pdfrwt>
<pdfrwt beam="2">  1       -1 0.46774173E-02 0.13685231E+03</pdfrwt>
<totfact> 0.87382100E+03</totfact>
</mgrwt>
</event>
<event>
 8    1  0.3551276E-004  0.1318633E+03  0.7546771E-02  0.1237801E+00
          2   -1    0    0  501    0  0.00000000000E+00  0.00000000000E+00  0.14288257032E+04  0.14288257032E+04  0.00000000000E+00 0. -1.
         -2   -1    0    0    0  501 -0.00000000000E+00 -0.00000000000E+00 -0.94861817737E+01  0.94861817737E+01  0.00000000000E+00 0.  1.
         25    2    1    2    0    0  0.23884861444E+02  0.34561019923E+02  0.83955907671E+03  0.84985137920E+03  0.12499189070E+03 0.  0.
         23    2    1    2    0    0 -0.23884861444E+02 -0.34561019923E+02  0.57978044475E+03  0.58846050580E+03  0.91517496003E+02 0.  0.
          5    1    3    3  502    0 -0.42659024083E+02  0.47211695015E+02  0.38573317643E+03  0.39097430847E+03  0.47000000000E+01 0.  1.
         -5    1    4    4    0  503 -0.38893381755E+02 -0.57883220367E+02  0.46823222962E+03  0.47342018672E+03  0.47000000000E+01 0. -1.
          5    1    4    4  503    0  0.15008520311E+02  0.23322200443E+02  0.11154821513E+03  0.11504031908E+03  0.47000000000E+01 0.  1.
         -5    1    3    3    0  502  0.66543885528E+02 -0.12650675092E+02  0.45382590028E+03  0.45887707073E+03  0.47000000000E+01 0.  1.
<mgrwt>
<rscale>  0 0.12326784E+03</rscale>
<asrwt>0</asrwt>
<pdfrwt beam="1">  1        2 0.21981917E+00 0.13186328E+03</pdfrwt>
<pdfrwt beam="2">  1       -2 0.14594137E-02 0.13186328E+03</pdfrwt>
<totfact> 0.17636683E+04</totfact>
</mgrwt>
</event>
<event>
 8    1  0.3551276E-004  0.1542601E+03  0.7546771E-02  0.1206259E+00
          1   -1    0    0  501    0  0.00000000000E+00  0.00000000000E+00  0.48818936203E+03  0.48818936203E+03  0.00000000000E+00 0. -1.
         -1   -1    0    0    0  501 -0.00000000000E+00 -0.00000000000E+00 -0.56504994447E+02  0.56504994447E+02  0.00000000000E+00 0.  1.
         25    2    1    2    0    0  0.89147122373E+02  0.14947348128E+02  0.38426213544E+03  0.41406951101E+03  0.12500215426E+03 0.  0.
         23    2    1    2    0    0 -0.89147122373E+02 -0.14947348128E+02  0.47422232144E+02  0.13062484547E+03  0.81506745177E+02 0.  0.
          5    1    4    4  502    0 -0.28124591557E+02  0.11773386185E+02  0.55357452865E+02  0.63373045218E+02  0.47000000000E+01 0. -1.
         -5    1    3    3    0  503  0.12077255528E+03  0.16315101083E+02  0.31440491407E+03  0.33723097814E+03  0.47000000000E+01 0. -1.
          5    1    3    3  503    0 -0.31625432903E+02 -0.13677529554E+01  0.69857221378E+02  0.76838532867E+02  0.47000000000E+01 0. -1.
         -5    1    4    4    0  502 -0.61022530816E+02 -0.26720734313E+02 -0.79352207206E+01  0.67251800253E+02  0.47000000000E+01 0.  1.
<mgrwt>
<rscale>  0 0.14538652E+03</rscale>
<asrwt>0</asrwt>
<pdfrwt beam="1">  1        1 0.75106053E-01 0.15426008E+03</pdfrwt>
<pdfrwt beam="2">  1       -1 0.86930764E-02 0.15426008E+03</pdfrwt>
<totfact> 0.34479730E+03</totfact>
</mgrwt>
</event>
<event>
 8    1  0.3551276E-004  0.1272169E+03  0.7546771E-02  0.1246725E+00
         -2   -1    0    0    0  501 -0.00000000000E+00  0.00000000000E+00  0.16466471941E+03  0.16466471941E+03  0.00000000000E+00 0.  1.
          2   -1    0    0  501    0  0.00000000000E+00 -0.00000000000E+00 -0.74057029726E+02  0.74057029726E+02  0.00000000000E+00 0. -1.
         25    2    1    2    0    0 -0.15900908604E+01  0.23600699989E+02  0.50402559402E+02  0.13683768948E+03  0.12499845535E+03 0.  0.
         23    2    1    2    0    0  0.15900908604E+01 -0.23600699989E+02  0.40205130284E+02  0.10188405966E+03  0.90578075063E+02 0.  0.
          5    1    4    4  502    0  0.11979446836E+02 -0.48324513872E+02 -0.37831325908E+01  0.50151449427E+02  0.47000000000E+01 0. -1.
         -5    1    3    3    0  503  0.21843090221E+02  0.40500735547E+02 -0.27365151845E+02  0.53743573623E+02  0.47000000000E+01 0.  1.
          5    1    3    3  503    0 -0.23433181082E+02 -0.16900035558E+02  0.77767711247E+02  0.83094115857E+02  0.47000000000E+01 0.  1.
         -5    1    4    4    0  502 -0.10389355976E+02  0.24723813882E+02  0.43988262875E+02  0.51732610230E+02  0.47000000000E+01 0.  1.
<mgrwt>
<rscale>  0 0.11782726E+03</rscale>
<asrwt>0</asrwt>
<pdfrwt beam="1">  1        2 0.11393389E-01 0.12721688E+03</pdfrwt>
<pdfrwt beam="2">  1       -2 0.25333034E-01 0.12721688E+03</pdfrwt>
<totfact> 0.71099150E+03</totfact>
</mgrwt>
</event>
<event>
 8    1  0.3551276E-004  0.1435812E+03  0.7546771E-02  0.1217622E+00
          1   -1    0    0  501    0  0.00000000000E+00  0.00000000000E+00  0.57551919374E+03  0.57551919374E+03  0.00000000000E+00 0. -1.
         -1   -1    0    0    0  501 -0.00000000000E+00 -0.00000000000E+00 -0.31403990316E+02  0.31403990316E+02  0.00000000000E+00 0.  1.
         25    2    1    2    0    0  0.68417446727E+02 -0.17549940420E+02  0.22936026890E+03  0.27059509678E+03  0.12500650393E+03 0.  0.
         23    2    1    2    0    0 -0.68417446727E+02  0.17549940420E+02  0.31475493453E+03  0.33632808728E+03  0.95168093704E+02 0.  0.
          5    1    4    4  502    0 -0.92412283809E+02  0.15584156718E+02  0.24241035542E+03  0.25993800521E+03  0.47000000000E+01 0. -1.
         -5    1    3    3    0  503 -0.25415499306E+02  0.28544179619E+02  0.52773857455E+02  0.65329073358E+02  0.47000000000E+01 0. -1.
          5    1    3    3  503    0  0.93832946034E+02 -0.46094120038E+02  0.17658641144E+03  0.20526602342E+03  0.47000000000E+01 0. -1.
         -5    1    4    4    0  502  0.23994837081E+02  0.19657837017E+01  0.72344579110E+02  0.76390082070E+02  0.47000000000E+01 0.  1.
<mgrwt>
<rscale>  0 0.13685700E+03</rscale>
<asrwt>0</asrwt>
<pdfrwt beam="1">  1        1 0.88541407E-01 0.14358124E+03</pdfrwt>
<pdfrwt beam="2">  1       -1 0.48313835E-02 0.14358124E+03</pdfrwt>
<totfact> 0.66618961E+03</totfact>
</mgrwt>
</event>
<event>
 8    1  0.3551276E-004  0.1925861E+03  0.7546771E-02  0.1161066E+00
          2   -1    0    0  501    0  0.00000000000E+00  0.00000000000E+00  0.10990294812E+04  0.10990294812E+04  0.00000000000E+00 0. -1.
         -2   -1    0    0    0  501 -0.00000000000E+00 -0.00000000000E+00 -0.32905575223E+02  0.32905575223E+02  0.00000000000E+00 0.  1.
         25    2    1    2    0    0  0.17022626823E+02  0.14550975739E+03  0.72348143325E+03  0.74867536770E+03  0.12500625033E+03 0.  0.
         23    2    1    2    0    0 -0.17022626823E+02 -0.14550975739E+03  0.34264247270E+03  0.38325968869E+03  0.89561518322E+02 0.  0.
          5    1    4    4  502    0  0.28796787760E+02 -0.24746422832E+02  0.11848931648E+03  0.12451284491E+03  0.47000000000E+01 0. -1.
         -5    1    3    3    0  503  0.56492401966E+02  0.18876958235E+02  0.23664221220E+03  0.24406834622E+03  0.47000000000E+01 0. -1.
          5    1    3    3  503    0 -0.39469775143E+02  0.12663279915E+03  0.48683922105E+03  0.50460702148E+03  0.47000000000E+01 0. -1.
         -5    1    4    4    0  502 -0.45819414583E+02 -0.12076333456E+03  0.22415315622E+03  0.25874684378E+03  0.47000000000E+01 0.  1.
<mgrwt>
<rscale>  0 0.18714029E+03</rscale>
<asrwt>0</asrwt>
<pdfrwt beam="1">  1        2 0.16908143E+00 0.19258614E+03</pdfrwt>
<pdfrwt beam="2">  1       -2 0.50623970E-02 0.19258614E+03</pdfrwt>
<totfact> 0.43538193E+03</totfact>
</mgrwt>
</event>
<event>
 8    1  0.3551276E-004  0.1282465E+03  0.7546771E-02  0.1244459E+00
         -1   -1    0    0    0  501 -0.00000000000E+00  0.00000000000E+00  0.24409502751E+02  0.24409502751E+02  0.00000000000E+00 0.  1.
          1   -1    0    0  501    0  0.00000000000E+00 -0.00000000000E+00 -0.59437328427E+03  0.59437328427E+03  0.00000000000E+00 0. -1.
         25    2    1    2    0    0 -0.44210563032E+01 -0.28306023111E+02 -0.20767334865E+03  0.24408070389E+03  0.12500557422E+03 0.  0.
         23    2    1    2    0    0  0.44210563032E+01  0.28306023111E+02 -0.36229043287E+03  0.37470208313E+03  0.91249748901E+02 0.  0.
          5    1    3    3  502    0 -0.54462221776E+02 -0.25458394888E+02 -0.17231598767E+03  0.18256273738E+03  0.47000000000E+01 0. -1.
         -5    1    4    4    0  503 -0.33462413049E+02  0.24501757892E+02 -0.84196288824E+02  0.93974327764E+02  0.47000000000E+01 0.  1.
          5    1    4    4  503    0  0.37883469353E+02  0.38042652191E+01 -0.27809414404E+03  0.28072775537E+03  0.47000000000E+01 0. -1.
         -5    1    3    3    0  502  0.50041165473E+02 -0.28476282239E+01 -0.35357360983E+02  0.61517966514E+02  0.47000000000E+01 0. -1.
<mgrwt>
<rscale>  0 0.11917791E+03</rscale>
<asrwt>0</asrwt>
<pdfrwt beam="1">  1        1 0.91442036E-01 0.12824652E+03</pdfrwt>
<pdfrwt beam="2">  1       -1 0.37553084E-02 0.12824652E+03</pdfrwt>
<totfact> 0.91762586E+03</totfact>
</mgrwt>
</event>
<event>
 8    1  0.3551276E-004  0.1308821E+03  0.7546771E-02  0.1240410E+00
         -2   -1    0    0    0  501 -0.00000000000E+00  0.00000000000E+00  0.11999211475E+02  0.11999211475E+02  0.00000000000E+00 0.  1.
          2   -1    0    0  501    0  0.00000000000E+00 -0.00000000000E+00 -0.10954377562E+04  0.10954377562E+04  0.00000000000E+00 0. -1.
         25    2    1    2    0    0  0.33131111795E+02  0.20232535864E+02 -0.57548856292E+03  0.59018403794E+03  0.12499234578E+03 0.  0.
         23    2    1    2    0    0 -0.33131111795E+02 -0.20232535864E+02 -0.50794998176E+03  0.51725292969E+03  0.89612405574E+02 0.  0.
          5    1    4    4  502    0 -0.58277919936E+02 -0.54855858782E+00 -0.40932926435E+03  0.41348416357E+03  0.47000000000E+01 0. -1.
         -5    1    3    3    0  503  0.39937145344E+02 -0.45436791770E+02 -0.34848987095E+03  0.35373260774E+03  0.47000000000E+01 0.  1.
          5    1    3    3  503    0 -0.68060335493E+01  0.65669327634E+02 -0.22699869198E+03  0.23645143020E+03  0.47000000000E+01 0.  1.
         -5    1    4    4    0  502  0.25146808141E+02 -0.19683977276E+02 -0.98620717402E+02  0.10376876612E+03  0.47000000000E+01 0.  1.
<mgrwt>
<rscale>  0 0.12164349E+03</rscale>
<asrwt>0</asrwt>
<pdfrwt beam="1">  1        2 0.16852884E+00 0.13088206E+03</pdfrwt>
<pdfrwt beam="2">  1       -2 0.18460330E-02 0.13088206E+03</pdfrwt>
<totfact> 0.19080988E+04</totfact>
</mgrwt>
</event>
<event>
 8    1  0.3551276E-004  0.1336715E+03  0.7546771E-02  0.1234775E+00
          2   -1    0    0  501    0  0.00000000000E+00  0.00000000000E+00  0.29110112202E+03  0.29110112202E+03  0.00000000000E+00 0. -1.
         -2   -1    0    0    0  501 -0.00000000000E+00 -0.00000000000E+00 -0.52421505264E+02  0.52421505264E+02  0.00000000000E+00 0.  1.
         25    2    1    2    0    0 -0.41633411635E+02  0.22605587449E+02  0.84316169155E+02  0.15804202115E+03  0.12499484197E+03 0.  0.
         23    2    1    2    0    0  0.41633411635E+02 -0.22605587449E+02  0.15436344760E+03  0.18548060614E+03  0.91272272622E+02 0.  0.
          5    1    4    4  502    0  0.60718767161E+02  0.84076012347E+01  0.68195804909E+02  0.91816198196E+02  0.47000000000E+01 0. -1.
         -5    1    3    3    0  503 -0.39895894238E+02 -0.24966867051E+01 -0.23919680214E+02  0.46820475468E+02  0.47000000000E+01 0. -1.
          5    1    3    3  503    0 -0.17375173978E+01  0.25102274154E+02  0.10823584937E+03  0.11122154568E+03  0.47000000000E+01 0. -1.
         -5    1    4    4    0  502 -0.19085355526E+02 -0.31013188684E+02  0.86167642691E+02  0.93664407940E+02  0.47000000000E+01 0.  1.
<mgrwt>
<rscale>  0 0.12518838E+03</rscale>
<asrwt>0</asrwt>
<pdfrwt beam="1">  1        2 0.44784787E-01 0.13367148E+03</pdfrwt>
<pdfrwt beam="2">  1       -2 0.80648471E-02 0.13367148E+03</pdfrwt>
<totfact> 0.99667110E+03</totfact>
</mgrwt>
</event>
<event>
 8    1  0.3551276E-004  0.1267111E+03  0.7546771E-02  0.1244750E+00
         -2   -1    0    0    0  501 -0.00000000000E+00  0.00000000000E+00  0.66086953429E+02  0.66086953429E+02  0.00000000000E+00 0.  1.
          2   -1    0    0  501    0  0.00000000000E+00 -0.00000000000E+00 -0.25952547834E+03  0.25952547834E+03  0.00000000000E+00 0. -1.
         25    2    1    2    0    0  0.17445044261E+02  0.11274323257E+02 -0.18821480112E+03  0.22689316744E+03  0.12499703251E+03 0.  0.
         23    2    1    2    0    0 -0.17445044261E+02 -0.11274323257E+02 -0.52237237918E+01  0.98719264326E+02  0.96367867698E+02 0.  0.
          5    1    3    3  502    0 -0.51378642964E+02  0.22430638668E+02 -0.73325889127E+02  0.92421180042E+02  0.47000000000E+01 0. -1.
         -5    1    3    3    0  502  0.68823687225E+02 -0.11156315412E+02 -0.11488891199E+03  0.13447198740E+03  0.47000000000E+01 0. -1.
          5    1    4    4  503    0  0.36550247480E+02 -0.22569942243E+02 -0.18838727553E+01  0.43254616635E+02  0.47000000000E+01 0. -1.
         -5    1    4    4    0  503 -0.53995291741E+02  0.11295618986E+02 -0.33398510365E+01  0.55464647691E+02  0.47000000000E+01 0.  1.
<mgrwt>
<rscale>  0 0.11900336E+03</rscale>
<asrwt>0</asrwt>
<pdfrwt beam="1">  1        2 0.39926996E-01 0.12671108E+03</pdfrwt>
<pdfrwt beam="2">  1       -2 0.10167224E-01 0.12671108E+03</pdfrwt>
<totfact> 0.78157697E+03</totfact>
</mgrwt>
</event>
<event>
 8    1  0.3551276E-004  0.1694418E+03  0.7546771E-02  0.1185261E+00
          1   -1    0    0  501    0  0.00000000000E+00  0.00000000000E+00  0.10624638836E+03  0.10624638836E+03  0.00000000000E+00 0. -1.
         -1   -1    0    0    0  501 -0.00000000000E+00 -0.00000000000E+00 -0.28186471044E+03  0.28186471044E+03  0.00000000000E+00 0.  1.
         25    2    1    2    0    0 -0.52144291897E+02 -0.10181768373E+03 -0.12952568245E+02  0.16993610661E+03  0.12499857362E+03 0.  0.
         23    2    1    2    0    0  0.52144291897E+02  0.10181768373E+03 -0.16266575383E+03  0.21817499219E+03  0.89745818030E+02 0.  0.
          5    1    4    4  502    0  0.23197136556E+02  0.92443438962E+02 -0.64208393583E+02  0.11501610478E+03  0.47000000000E+01 0. -1.
         -5    1    3    3    0  503  0.18359366000E+02 -0.88917564849E+02  0.16327816399E+02  0.92369298184E+02  0.47000000000E+01 0. -1.
          5    1    3    3  503    0 -0.70503657897E+02 -0.12900118881E+02 -0.29280384645E+02  0.77566808423E+02  0.47000000000E+01 0. -1.
         -5    1    4    4    0  502  0.28947155341E+02  0.93742447676E+01 -0.98457360243E+02  0.10315888742E+03  0.47000000000E+01 0.  1.
<mgrwt>
<rscale>  0 0.16308121E+03</rscale>
<asrwt>0</asrwt>
<pdfrwt beam="1">  1        1 0.16345598E-01 0.16944176E+03</pdfrwt>
<pdfrwt beam="2">  1       -1 0.43363801E-01 0.16944176E+03</pdfrwt>
<totfact> 0.17473485E+03</totfact>
</mgrwt>
</event>
<event>
 8    1  0.3551276E-004  0.1269189E+03  0.7546771E-02  0.1244285E+00
          2   -1    0    0  501    0  0.00000000000E+00  0.00000000000E+00  0.37599872538E+03  0.37599872538E+03  0.00000000000E+00 0. -1.
         -2   -1    0    0    0  501 -0.00000000000E+00 -0.00000000000E+00 -0.53044225894E+02  0.53044225894E+02  0.00000000000E+00 0.  1.
         25    2    1    2    0    0  0.21165588843E+02  0.60320911615E+01  0.30233760405E+03  0.32789696993E+03  0.12499611111E+03 0.  0.
         23    2    1    2    0    0 -0.21165588843E+02 -0.60320911615E+01  0.20616895434E+02  0.10114598134E+03  0.96545765775E+02 0.  0.
          5    1    3    3  502    0 -0.34965382419E+02 -0.39498099268E+02  0.10317274761E+03  0.11597147780E+03  0.47000000000E+01 0. -1.
         -5    1    4    4    0  503 -0.17148946943E+02 -0.31625138158E+02 -0.28018829125E+02  0.45840817295E+02  0.47000000000E+01 0.  1.
          5    1    4    4  503    0 -0.40166419001E+01  0.25593046996E+02  0.48635724559E+02  0.55305164045E+02  0.47000000000E+01 0. -1.
         -5    1    3    3    0  502  0.56130971262E+02  0.45530190429E+02  0.19916485643E+03  0.21192549213E+03  0.47000000000E+01 0. -1.
<mgrwt>
<rscale>  0 0.11928287E+03</rscale>
<asrwt>0</asrwt>
<pdfrwt beam="1">  1        2 0.57845956E-01 0.12691886E+03</pdfrwt>
<pdfrwt beam="2">  1       -2 0.81606504E-02 0.12691886E+03</pdfrwt>
<totfact> 0.74342006E+03</totfact>
</mgrwt>
</event>
<event>
 8    1  0.3551276E-004  0.1266513E+03  0.7546771E-02  0.1248217E+00
          4   -1    0    0  501    0  0.00000000000E+00  0.00000000000E+00  0.82568616867E+03  0.82568616867E+03  0.00000000000E+00 0. -1.
         -4   -1    0    0    0  501 -0.00000000000E+00 -0.00000000000E+00 -0.15368230906E+02  0.15368230906E+02  0.00000000000E+00 0.  1.
         25    2    1    2    0    0 -0.80124102274E+01  0.18765730079E+02  0.56510526032E+03  0.57912392110E+03  0.12499683758E+03 0.  0.
         23    2    1    2    0    0  0.80124102274E+01 -0.18765730079E+02  0.24521267745E+03  0.26193047848E+03  0.89788457125E+02 0.  0.
          5    1    3    3  502    0 -0.60138311361E+02 -0.10649480521E+02  0.20181292237E+03  0.21090418100E+03  0.47000000000E+01 0.  1.
         -5    1    4    4    0  503 -0.31242366180E+02  0.23202178509E+01  0.35913043520E+02  0.47888469910E+02  0.47000000000E+01 0.  1.
          5    1    4    4  503    0  0.39254776407E+02 -0.21085947930E+02  0.20929963392E+03  0.21404200857E+03  0.47000000000E+01 0. -1.
         -5    1    3    3    0  502  0.52125901133E+02  0.29415210601E+02  0.36329233795E+03  0.36821974010E+03  0.47000000000E+01 0.  1.
<mgrwt>
<rscale>  0 0.11694887E+03</rscale>
<asrwt>0</asrwt>
<pdfrwt beam="1">  1        4 0.12702861E+00 0.12665134E+03</pdfrwt>
<pdfrwt beam="2">  1       -4 0.23643439E-02 0.12665134E+03</pdfrwt>
<totfact> 0.62032243E+02</totfact>
</mgrwt>
</event>
<event>
 8    1  0.3551276E-004  0.3538769E+03  0.7546771E-02  0.1062080E+00
         -2   -1    0    0    0  501 -0.00000000000E+00  0.00000000000E+00  0.50684043900E+03  0.50684043900E+03  0.00000000000E+00 0.  1.
          2   -1    0    0  501    0  0.00000000000E+00 -0.00000000000E+00 -0.25311078541E+03  0.25311078541E+03  0.00000000000E+00 0. -1.
         25    2    1    2    0    0 -0.32813554727E+03 -0.43937909379E+02  0.21499658319E+03  0.41406811373E+03  0.12500157906E+03 0.  0.
         23    2    1    2    0    0  0.32813554727E+03  0.43937909379E+02  0.38733070408E+02  0.34588311067E+03  0.92365568484E+02 0.  0.
          5    1    3    3  502    0 -0.29510546097E+02 -0.26458843532E+02  0.72347712614E+02  0.82627018901E+02  0.47000000000E+01 0.  1.
         -5    1    4    4    0  503  0.86363483424E+02 -0.26975742991E+02  0.22540818726E+02  0.93362307640E+02  0.47000000000E+01 0.  1.
          5    1    4    4  503    0  0.24177206385E+03  0.70913652370E+02  0.16192251682E+02  0.25252080303E+03  0.47000000000E+01 0. -1.
         -5    1    3    3    0  502 -0.29862500117E+03 -0.17479065847E+02  0.14264887057E+03  0.33144109483E+03  0.47000000000E+01 0.  1.
<mgrwt>
<rscale>  0 0.35130671E+03</rscale>
<asrwt>0</asrwt>
<pdfrwt beam="1">  1        2 0.38940121E-01 0.35387692E+03</pdfrwt>
<pdfrwt beam="2">  1       -2 0.77975452E-01 0.35387692E+03</pdfrwt>
<totfact> 0.19886973E+02</totfact>
</mgrwt>
</event>
<event>
 8    1  0.3551276E-004  0.1688977E+03  0.7546771E-02  0.1185438E+00
         -3   -1    0    0    0  501 -0.00000000000E+00  0.00000000000E+00  0.26758708072E+03  0.26758708072E+03  0.00000000000E+00 0.  1.
          3   -1    0    0  501    0  0.00000000000E+00 -0.00000000000E+00 -0.92786735333E+02  0.92786735333E+02  0.00000000000E+00 0. -1.
         25    2    1    2    0    0 -0.11315587657E+03  0.98847508700E+01  0.95286051338E+02  0.19392228316E+03  0.12499783848E+03 0.  0.
         23    2    1    2    0    0  0.11315587657E+03 -0.98847508700E+01  0.79514294050E+02  0.16645153289E+03  0.92095760717E+02 0.  0.
          5    1    3    3  502    0 -0.99948073237E+02  0.29741520257E+02  0.12014304874E+03  0.15915595349E+03  0.47000000000E+01 0.  1.
         -5    1    4    4    0  503  0.42605984336E+02 -0.40103491054E+02  0.66092036039E+02  0.88395741547E+02  0.47000000000E+01 0.  1.
          5    1    4    4  503    0  0.70549892233E+02  0.30218740183E+02  0.13422258011E+02  0.78055791345E+02  0.47000000000E+01 0. -1.
         -5    1    3    3    0  502 -0.13207803332E+02 -0.19856769387E+02 -0.24856997398E+02  0.34766329674E+02  0.47000000000E+01 0.  1.
<mgrwt>
<rscale>  0 0.16292128E+03</rscale>
<asrwt>0</asrwt>
<pdfrwt beam="1">  1        3 0.14274882E-01 0.16889766E+03</pdfrwt>
<pdfrwt beam="2">  1       -3 0.41167243E-01 0.16889766E+03</pdfrwt>
<totfact> 0.56704876E+02</totfact>
</mgrwt>
</event>
<event>
 8    1  0.3551276E-004  0.1855893E+03  0.7546771E-02  0.1167636E+00
         -1   -1    0    0    0  501 -0.00000000000E+00  0.00000000000E+00  0.27160998516E+02  0.27160998516E+02  0.00000000000E+00 0.  1.
          1   -1    0    0  501    0  0.00000000000E+00 -0.00000000000E+00 -0.11700714315E+04  0.11700714315E+04  0.00000000000E+00 0. -1.
         25    2    1    2    0    0  0.13658378212E+03 -0.12767524424E+02 -0.49405462144E+03  0.52776258661E+03  0.12500095856E+03 0.  0.
         23    2    1    2    0    0 -0.13658378212E+03  0.12767524424E+02 -0.64885581150E+03  0.66946984336E+03  0.91421375135E+02 0.  0.
          5    1    4    4  502    0 -0.10420490128E+03  0.37314464291E+02 -0.56968902587E+03  0.58036084197E+03  0.47000000000E+01 0. -1.
         -5    1    3    3    0  503  0.50632622608E+02  0.83384141877E+01 -0.37921257698E+03  0.38269760930E+03  0.47000000000E+01 0.  1.
          5    1    3    3  503    0  0.85951159516E+02 -0.21105938612E+02 -0.11484204446E+03  0.14506497731E+03  0.47000000000E+01 0.  1.
         -5    1    4    4    0  502 -0.32378880846E+02 -0.24546939866E+02 -0.79166785630E+02  0.89109001390E+02  0.47000000000E+01 0.  1.
<mgrwt>
<rscale>  0 0.18017223E+03</rscale>
<asrwt>0</asrwt>
<pdfrwt beam="1">  1        1 0.18001095E+00 0.18558927E+03</pdfrwt>
<pdfrwt beam="2">  1       -1 0.41786161E-02 0.18558927E+03</pdfrwt>
<totfact> 0.27547100E+03</totfact>
</mgrwt>
</event>
<event>
 8    1  0.3551276E-004  0.1357025E+03  0.7546771E-02  0.1232960E+00
          2   -1    0    0  501    0  0.00000000000E+00  0.00000000000E+00  0.37016796934E+03  0.37016796934E+03  0.00000000000E+00 0. -1.
         -2   -1    0    0    0  501 -0.00000000000E+00 -0.00000000000E+00 -0.49977368750E+02  0.49977368750E+02  0.00000000000E+00 0.  1.
         25    2    1    2    0    0  0.12905261924E+02 -0.51200785129E+02  0.27876231086E+03  0.31003804825E+03  0.12500839663E+03 0.  0.
         23    2    1    2    0    0 -0.12905261924E+02  0.51200785129E+02  0.41428289732E+02  0.11010728984E+03  0.87288291893E+02 0.  0.
          5    1    3    3  502    0  0.58565925223E+02  0.85278982538E-01  0.18232862556E+03  0.19156145899E+03  0.47000000000E+01 0.  1.
         -5    1    3    3    0  502 -0.45660663299E+02 -0.51286064112E+02  0.96433685294E+02  0.11847658927E+03  0.47000000000E+01 0.  1.
          5    1    4    4  503    0 -0.17051761899E+02  0.27743937461E+02  0.67124478733E+02  0.74754761018E+02  0.47000000000E+01 0. -1.
         -5    1    4    4    0  503  0.41464999749E+01  0.23456847669E+02 -0.25696189001E+02  0.35352528817E+02  0.47000000000E+01 0.  1.
<mgrwt>
<rscale>  0 0.12635958E+03</rscale>
<asrwt>0</asrwt>
<pdfrwt beam="1">  1        2 0.56948917E-01 0.13570249E+03</pdfrwt>
<pdfrwt beam="2">  1       -2 0.76888262E-02 0.13570249E+03</pdfrwt>
<totfact> 0.83233053E+03</totfact>
</mgrwt>
</event>
<event>
 8    1  0.3551276E-004  0.1251313E+03  0.7546771E-02  0.1250748E+00
         -2   -1    0    0    0  501 -0.00000000000E+00  0.00000000000E+00  0.46356004812E+02  0.46356004812E+02  0.00000000000E+00 0.  1.
          2   -1    0    0  501    0  0.00000000000E+00 -0.00000000000E+00 -0.25290980642E+03  0.25290980642E+03  0.00000000000E+00 0. -1.
         25    2    1    2    0    0  0.12525007028E+01  0.56308973539E+01 -0.10809531395E+03  0.16535547429E+03  0.12499824085E+03 0.  0.
         23    2    1    2    0    0 -0.12525007028E+01 -0.56308973539E+01 -0.98458487655E+02  0.13391033694E+03  0.90579405967E+02 0.  0.
          5    1    4    4  502    0 -0.14608961728E+02  0.25563319199E+02 -0.94894180917E+02  0.99468088466E+02  0.47000000000E+01 0. -1.
         -5    1    3    3    0  503 -0.30706126136E+02 -0.38429072484E+02 -0.98062944051E+02  0.10980933836E+03  0.47000000000E+01 0.  1.
          5    1    3    3  503    0  0.31958626838E+02  0.44059969838E+02 -0.10032369904E+02  0.55546135936E+02  0.47000000000E+01 0.  1.
         -5    1    4    4    0  502  0.13356461026E+02 -0.31194216553E+02 -0.35643067376E+01  0.34442248475E+02  0.47000000000E+01 0.  1.
<mgrwt>
<rscale>  0 0.11547860E+03</rscale>
<asrwt>0</asrwt>
<pdfrwt beam="1">  1        2 0.38909201E-01 0.12513127E+03</pdfrwt>
<pdfrwt beam="2">  1       -2 0.71316930E-02 0.12513127E+03</pdfrwt>
<totfact> 0.13899252E+04</totfact>
</mgrwt>
</event>
<event>
 8    1  0.3551276E-004  0.3249750E+03  0.7546771E-02  0.1074615E+00
          1   -1    0    0  501    0  0.00000000000E+00  0.00000000000E+00  0.13854922840E+03  0.13854922840E+03  0.00000000000E+00 0. -1.
         -1   -1    0    0    0  501 -0.00000000000E+00 -0.00000000000E+00 -0.74012194612E+03  0.74012194612E+03  0.00000000000E+00 0.  1.
         25    2    1    2    0    0 -0.14582759226E+03  0.26213835057E+03 -0.33308604926E+03  0.46535474760E+03  0.12500609346E+03 0.  0.
         23    2    1    2    0    0  0.14582759226E+03 -0.26213835057E+03 -0.26848666846E+03  0.41331642691E+03  0.93611837439E+02 0.  0.
          5    1    4    4  502    0  0.19293621029E+02 -0.55006709731E+02 -0.11142637205E+02  0.59533438434E+02  0.47000000000E+01 0. -1.
         -5    1    4    4    0  502  0.12653397123E+03 -0.20713164084E+03 -0.25734403126E+03  0.35378298848E+03  0.47000000000E+01 0.  1.
          5    1    3    3  503    0 -0.10621373866E+03  0.17578332527E+03 -0.30205970020E+03  0.36529890256E+03  0.47000000000E+01 0. -1.
         -5    1    3    3    0  503 -0.39613853600E+02  0.86355025305E+02 -0.31026349055E+02  0.10005584505E+03  0.47000000000E+01 0. -1.
<mgrwt>
<rscale>  0 0.32225675E+03</rscale>
<asrwt>0</asrwt>
<pdfrwt beam="1">  1        1 0.21315266E-01 0.32497496E+03</pdfrwt>
<pdfrwt beam="2">  1       -1 0.11386491E+00 0.32497496E+03</pdfrwt>
<totfact> 0.17603741E+02</totfact>
</mgrwt>
</event>
<event>
 8    1  0.3551276E-004  0.1575592E+03  0.7546771E-02  0.1199504E+00
          3   -1    0    0  501    0  0.00000000000E+00  0.00000000000E+00  0.12732822638E+03  0.12732822638E+03  0.00000000000E+00 0. -1.
         -3   -1    0    0    0  501 -0.00000000000E+00 -0.00000000000E+00 -0.21014965000E+03  0.21014965000E+03  0.00000000000E+00 0.  1.
         25    2    1    2    0    0 -0.87210446311E+02  0.39922643741E+02  0.33868698131E+02  0.16115831550E+03  0.12500173804E+03 0.  0.
         23    2    1    2    0    0  0.87210446311E+02 -0.39922643741E+02 -0.11669012175E+03  0.17631956088E+03  0.90953414477E+02 0.  0.
          5    1    3    3  502    0 -0.99548208199E+02  0.70309092563E+02  0.38056711557E+02  0.12776391332E+03  0.47000000000E+01 0. -1.
         -5    1    3    3    0  502  0.12337761888E+02 -0.30386448822E+02 -0.41880134257E+01  0.33394402179E+02  0.47000000000E+01 0. -1.
          5    1    4    4  503    0 -0.50819086555E+01 -0.21479306692E+02 -0.65071711297E+02  0.68873826833E+02  0.47000000000E+01 0. -1.
         -5    1    4    4    0  503  0.92292354967E+02 -0.18443337048E+02 -0.51618410455E+02  0.10744573405E+03  0.47000000000E+01 0.  1.
<mgrwt>
<rscale>  0 0.15079111E+03</rscale>
<asrwt>0</asrwt>
<pdfrwt beam="1">  1        3 0.19588958E-01 0.15755924E+03</pdfrwt>
<pdfrwt beam="2">  1       -3 0.32330715E-01 0.15755924E+03</pdfrwt>
<totfact> 0.51442863E+02</totfact>
</mgrwt>
</event>
<event>
 8    1  0.3551276E-004  0.1411284E+03  0.7546771E-02  0.1222586E+00
         -1   -1    0    0    0  501 -0.00000000000E+00  0.00000000000E+00  0.91145999569E+02  0.91145999569E+02  0.00000000000E+00 0.  1.
          1   -1    0    0  501    0  0.00000000000E+00 -0.00000000000E+00 -0.27452751386E+03  0.27452751386E+03  0.00000000000E+00 0. -1.
         25    2    1    2    0    0  0.34214630521E+02 -0.55856673194E+02  0.10523793070E+02  0.14152027825E+03  0.12500652004E+03 0.  0.
         23    2    1    2    0    0 -0.34214630521E+02  0.55856673194E+02 -0.19390530736E+03  0.22415323518E+03  0.91404571744E+02 0.  0.
          5    1    4    4  502    0  0.23029452658E+02  0.29813052538E+02 -0.29534927279E+02  0.48099643665E+02  0.47000000000E+01 0. -1.
         -5    1    4    4    0  502 -0.57244083178E+02  0.26043620656E+02 -0.16437038008E+03  0.17605359151E+03  0.47000000000E+01 0.  1.
          5    1    3    3  503    0  0.20151349774E+02  0.18242379432E+02 -0.41460189233E+02  0.49798580264E+02  0.47000000000E+01 0. -1.
         -5    1    3    3    0  503  0.14063280747E+02 -0.74099052626E+02  0.51983982304E+02  0.91721697987E+02  0.47000000000E+01 0. -1.
<mgrwt>
<rscale>  0 0.13333756E+03</rscale>
<asrwt>0</asrwt>
<pdfrwt beam="1">  1        1 0.42235001E-01 0.14112845E+03</pdfrwt>
<pdfrwt beam="2">  1       -1 0.14022462E-01 0.14112845E+03</pdfrwt>
<totfact> 0.33980277E+03</totfact>
</mgrwt>
</event>
<event>
 8    1  0.3551276E-004  0.1415833E+03  0.7546771E-02  0.1221587E+00
         -1   -1    0    0    0  501 -0.00000000000E+00  0.00000000000E+00  0.75978336638E+02  0.75978336638E+02  0.00000000000E+00 0.  1.
          1   -1    0    0  501    0  0.00000000000E+00 -0.00000000000E+00 -0.23905723122E+03  0.23905723122E+03  0.00000000000E+00 0. -1.
         25    2    1    2    0    0  0.37877447219E+02 -0.54655834777E+02 -0.13976261826E+03  0.19894577570E+03  0.12499548361E+03 0.  0.
         23    2    1    2    0    0 -0.37877447219E+02  0.54655834777E+02 -0.23316276319E+02  0.11608979216E+03  0.92256326712E+02 0.  0.
          5    1    3    3  502    0  0.33411171743E+02 -0.93850455561E+02 -0.11460383139E+03  0.15192215960E+03  0.47000000000E+01 0. -1.
         -5    1    3    3    0  502  0.44662754760E+01  0.39194620784E+02 -0.25158786870E+02  0.47023616107E+02  0.47000000000E+01 0. -1.
          5    1    4    4  503    0 -0.41376902056E+02  0.45973965296E+01 -0.44767923768E+02  0.61314281184E+02  0.47000000000E+01 0. -1.
         -5    1    4    4    0  503  0.34994548367E+01  0.50058438247E+02  0.21451647449E+02  0.54775510972E+02  0.47000000000E+01 0.  1.
<mgrwt>
<rscale>  0 0.13403624E+03</rscale>
<asrwt>0</asrwt>
<pdfrwt beam="1">  1        1 0.36778035E-01 0.14158330E+03</pdfrwt>
<pdfrwt beam="2">  1       -1 0.11688975E-01 0.14158330E+03</pdfrwt>
<totfact> 0.53491264E+03</totfact>
</mgrwt>
</event>
<event>
 8    1  0.3551276E-004  0.2160657E+03  0.7546771E-02  0.1140359E+00
         -2   -1    0    0    0  501 -0.00000000000E+00  0.00000000000E+00  0.72565441823E+02  0.72565441823E+02  0.00000000000E+00 0.  1.
          2   -1    0    0  501    0  0.00000000000E+00 -0.00000000000E+00 -0.93977481825E+03  0.93977481825E+03  0.00000000000E+00 0. -1.
         25    2    1    2    0    0 -0.16522557111E+02  0.17546026281E+03 -0.13747640107E+03  0.25609400473E+03  0.12500031875E+03 0.  0.
         23    2    1    2    0    0  0.16522557111E+02 -0.17546026281E+03 -0.72973297535E+03  0.75624625534E+03  0.91317493819E+02 0.  0.
          5    1    4    4  502    0  0.15284165048E+02 -0.67728435087E+02 -0.13569707436E+03  0.15250092659E+03  0.47000000000E+01 0.  1.
         -5    1    3    3    0  503  0.53409477804E+02  0.89997744656E+02 -0.77773514033E+02  0.13047212671E+03  0.47000000000E+01 0.  1.
          5    1    3    3  503    0 -0.69932034915E+02  0.85462518157E+02 -0.59702887038E+02  0.12562187802E+03  0.47000000000E+01 0.  1.
         -5    1    4    4    0  502  0.12383920624E+01 -0.10773182773E+03 -0.59403590099E+03  0.60374532875E+03  0.47000000000E+01 0. -1.
<mgrwt>
<rscale>  0 0.21153092E+03</rscale>
<asrwt>0</asrwt>
<pdfrwt beam="1">  1        2 0.14458075E+00 0.21606568E+03</pdfrwt>
<pdfrwt beam="2">  1       -2 0.11163914E-01 0.21606568E+03</pdfrwt>
<totfact> 0.15906996E+03</totfact>
</mgrwt>
</event>
<event>
 8    1  0.3551276E-004  0.1767687E+03  0.7546771E-02  0.1176998E+00
          2   -1    0    0  501    0  0.00000000000E+00  0.00000000000E+00  0.19763880434E+03  0.19763880434E+03  0.00000000000E+00 0. -1.
         -2   -1    0    0    0  501 -0.00000000000E+00 -0.00000000000E+00 -0.14004448923E+03  0.14004448923E+03  0.00000000000E+00 0.  1.
         25    2    1    2    0    0 -0.12355149395E+03 -0.18891973221E+02  0.13117298811E+02  0.17725470113E+03  0.12500114893E+03 0.  0.
         23    2    1    2    0    0  0.12355149395E+03  0.18891973221E+02  0.44477016307E+02  0.16042859244E+03  0.90206706970E+02 0.  0.
          5    1    3    3  502    0 -0.97840928985E+02 -0.63052239249E+02  0.34751338469E+02  0.12156552877E+03  0.47000000000E+01 0. -1.
         -5    1    4    4    0  503  0.76364625331E+02  0.54745039635E+02  0.20248392257E+02  0.96232337369E+02  0.47000000000E+01 0.  1.
          5    1    4    4  503    0  0.47186868623E+02 -0.35853066415E+02  0.24228624050E+02  0.64196255071E+02  0.47000000000E+01 0. -1.
         -5    1    3    3    0  502 -0.25710564969E+02  0.44160266028E+02 -0.21634039658E+02  0.55689172364E+02  0.47000000000E+01 0. -1.
<mgrwt>
<rscale>  0 0.17081767E+03</rscale>
<asrwt>0</asrwt>
<pdfrwt beam="1">  1        2 0.30405970E-01 0.17676868E+03</pdfrwt>
<pdfrwt beam="2">  1       -2 0.21545306E-01 0.17676868E+03</pdfrwt>
<totfact> 0.31200766E+03</totfact>
</mgrwt>
</event>
<event>
 8    1  0.3551276E-004  0.1619384E+03  0.7546771E-02  0.1193887E+00
         -1   -1    0    0    0  501 -0.00000000000E+00  0.00000000000E+00  0.23929383938E+02  0.23929383938E+02  0.00000000000E+00 0.  1.
          1   -1    0    0  501    0  0.00000000000E+00 -0.00000000000E+00 -0.95505992276E+03  0.95505992276E+03  0.00000000000E+00 0. -1.
         25    2    1    2    0    0  0.46741229748E+02  0.91727288761E+02 -0.43670229452E+03  0.46576061183E+03  0.12500166168E+03 0.  0.
         23    2    1    2    0    0 -0.46741229748E+02 -0.91727288761E+02 -0.49442824430E+03  0.51322869488E+03  0.91355166348E+02 0.  0.
          5    1    3    3  502    0  0.16452951864E+02  0.10436903323E+03 -0.19535825550E+03  0.22214979791E+03  0.47000000000E+01 0.  1.
         -5    1    3    3    0  502  0.30288277884E+02 -0.12641744470E+02 -0.24134403903E+03  0.24361081391E+03  0.47000000000E+01 0.  1.
          5    1    4    4  503    0 -0.57433751937E+02 -0.69203847339E+02 -0.46802793889E+03  0.47661310297E+03  0.47000000000E+01 0. -1.
         -5    1    4    4    0  503  0.10692522190E+02 -0.22523441423E+02 -0.26400305415E+02  0.36615591902E+02  0.47000000000E+01 0.  1.
<mgrwt>
<rscale>  0 0.15548824E+03</rscale>
<asrwt>0</asrwt>
<pdfrwt beam="1">  1        1 0.14693229E+00 0.16193842E+03</pdfrwt>
<pdfrwt beam="2">  1       -1 0.36814438E-02 0.16193842E+03</pdfrwt>
<totfact> 0.47318408E+03</totfact>
</mgrwt>
</event>
<event>
 8    1  0.3551276E-004  0.1320387E+03  0.7546771E-02  0.1237618E+00
         -1   -1    0    0    0  501 -0.00000000000E+00  0.00000000000E+00  0.41843340850E+02  0.41843340850E+02  0.00000000000E+00 0.  1.
          1   -1    0    0  501    0  0.00000000000E+00 -0.00000000000E+00 -0.40798850746E+03  0.40798850746E+03  0.00000000000E+00 0. -1.
         25    2    1    2    0    0  0.40799487892E+02  0.12035157588E+02 -0.30421747895E+03  0.33163607952E+03  0.12499908604E+03 0.  0.
         23    2    1    2    0    0 -0.40799487892E+02 -0.12035157588E+02 -0.61927687656E+02  0.11819576879E+03  0.91245591841E+02 0.  0.
          5    1    3    3  502    0  0.82733324774E+02  0.26193095985E+02 -0.18549070155E+03  0.20484084472E+03  0.47000000000E+01 0. -1.
         -5    1    3    3    0  502 -0.41933836882E+02 -0.14157938397E+02 -0.11872677740E+03  0.12679523480E+03  0.47000000000E+01 0. -1.
          5    1    4    4  503    0  0.64490612824E+01 -0.42604489687E+02 -0.19331582279E+02  0.47460857624E+02  0.47000000000E+01 0. -1.
         -5    1    4    4    0  503 -0.47248549174E+02  0.30569332100E+02 -0.42596105376E+02  0.70734911164E+02  0.47000000000E+01 0.  1.
<mgrwt>
<rscale>  0 0.12338289E+03</rscale>
<asrwt>0</asrwt>
<pdfrwt beam="1">  1        1 0.62767464E-01 0.13203869E+03</pdfrwt>
<pdfrwt beam="2">  1       -1 0.64374370E-02 0.13203869E+03</pdfrwt>
<totfact> 0.67679486E+03</totfact>
</mgrwt>
</event>
<event>
 8    1  0.3551276E-004  0.1303203E+03  0.7546771E-02  0.1240924E+00
          2   -1    0    0  501    0  0.00000000000E+00  0.00000000000E+00  0.21461610234E+03  0.21461610234E+03  0.00000000000E+00 0.  1.
         -2   -1    0    0    0  501 -0.00000000000E+00 -0.00000000000E+00 -0.62814670693E+02  0.62814670693E+02  0.00000000000E+00 0. -1.
         25    2    1    2    0    0 -0.11614498167E+02 -0.34969267752E+02  0.11168098980E+03  0.17162758175E+03  0.12500254829E+03 0.  0.
         23    2    1    2    0    0  0.11614498167E+02  0.34969267752E+02  0.40120441854E+02  0.10580319129E+03  0.90702365887E+02 0.  0.
          5    1    4    4  502    0 -0.19436784585E+02  0.41313036206E+02 -0.93721496645E+01  0.46845306541E+02  0.47000000000E+01 0. -1.
         -5    1    4    4    0  502  0.31051282751E+02 -0.63437684539E+01  0.49492591519E+02  0.58957884748E+02  0.47000000000E+01 0.  1.
          5    1    3    3  503    0  0.11196947212E+02 -0.74690982113E+02  0.97554777937E+02  0.12346310839E+03  0.47000000000E+01 0.  1.
         -5    1    3    3    0  503 -0.22811445379E+02  0.39721714361E+02  0.14126211861E+02  0.48164473355E+02  0.47000000000E+01 0.  1.
<mgrwt>
<rscale>  0 0.12132665E+03</rscale>
<asrwt>0</asrwt>
<pdfrwt beam="1">  1        2 0.33017862E-01 0.13032031E+03</pdfrwt>
<pdfrwt beam="2">  1       -2 0.96637956E-02 0.13032031E+03</pdfrwt>
<totfact> 0.10388413E+04</totfact>
</mgrwt>
</event>
<event>
 8    1  0.3551276E-004  0.1279553E+03  0.7546771E-02  0.1245449E+00
          3   -1    0    0  501    0  0.00000000000E+00  0.00000000000E+00  0.51130929165E+02  0.51130929165E+02  0.00000000000E+00 0. -1.
         -3   -1    0    0    0  501 -0.00000000000E+00 -0.00000000000E+00 -0.24733289982E+03  0.24733289982E+03  0.00000000000E+00 0.  1.
         25    2    1    2    0    0 -0.25932825907E+02  0.86456123402E+01 -0.90369755378E+02  0.15665007535E+03  0.12500118138E+03 0.  0.
         23    2    1    2    0    0  0.25932825907E+02 -0.86456123402E+01 -0.10583221528E+03  0.14181375364E+03  0.90351673248E+02 0.  0.
          5    1    3    3  502    0 -0.39448393844E+02  0.32017477845E+02 -0.11112102780E+03  0.12227537562E+03  0.47000000000E+01 0.  1.
         -5    1    3    3    0  502  0.13515567937E+02 -0.23371865505E+02  0.20751272423E+02  0.34374699722E+02  0.47000000000E+01 0.  1.
          5    1    4    4  503    0  0.26921707716E+02  0.24792379776E+02 -0.72502334405E+01  0.37604472158E+02  0.47000000000E+01 0. -1.
         -5    1    4    4    0  503 -0.98888180949E+00 -0.33437992116E+02 -0.98581981841E+02  0.10420928149E+03  0.47000000000E+01 0.  1.
<mgrwt>
<rscale>  0 0.11858576E+03</rscale>
<asrwt>0</asrwt>
<pdfrwt beam="1">  1        3 0.78662969E-02 0.12795528E+03</pdfrwt>
<pdfrwt beam="2">  1       -3 0.38051215E-01 0.12795528E+03</pdfrwt>
<totfact> 0.17048744E+03</totfact>
</mgrwt>
</event>
<event>
 8    1  0.3551276E-004  0.1291104E+03  0.7546771E-02  0.1242106E+00
          2   -1    0    0  501    0  0.00000000000E+00  0.00000000000E+00  0.83649824107E+02  0.83649824107E+02  0.00000000000E+00 0. -1.
         -2   -1    0    0    0  501 -0.00000000000E+00 -0.00000000000E+00 -0.17673800442E+03  0.17673800442E+03  0.00000000000E+00 0.  1.
         25    2    1    2    0    0 -0.32308672207E+02 -0.10040800649E+01 -0.63071398167E+01  0.12926437506E+03  0.12499856068E+03 0.  0.
         23    2    1    2    0    0  0.32308672207E+02  0.10040800649E+01 -0.86781040497E+02  0.13112345347E+03  0.92830773897E+02 0.  0.
          5    1    4    4  502    0 -0.23041550068E+02  0.20007968329E+02 -0.58071893094E+02  0.65769800013E+02  0.47000000000E+01 0. -1.
         -5    1    4    4    0  502  0.55350222275E+02 -0.19003888264E+02 -0.28709147403E+02  0.65353653453E+02  0.47000000000E+01 0.  1.
          5    1    3    3  503    0 -0.28832490532E+02  0.56819477011E+02  0.17833724847E+02  0.66331721069E+02  0.47000000000E+01 0. -1.
         -5    1    3    3    0  503 -0.34761816752E+01 -0.57823557075E+02 -0.24140864664E+02  0.62932653993E+02  0.47000000000E+01 0. -1.
<mgrwt>
<rscale>  0 0.12060259E+03</rscale>
<asrwt>0</asrwt>
<pdfrwt beam="1">  1        2 0.12869204E-01 0.12911041E+03</pdfrwt>
<pdfrwt beam="2">  1       -2 0.27190462E-01 0.12911041E+03</pdfrwt>
<totfact> 0.54318046E+03</totfact>
</mgrwt>
</event>
<event>
 8    1  0.3551276E-004  0.1341380E+03  0.7546771E-02  0.1233890E+00
          2   -1    0    0  501    0  0.00000000000E+00  0.00000000000E+00  0.97986668013E+02  0.97986668013E+02  0.00000000000E+00 0. -1.
         -2   -1    0    0    0  501 -0.00000000000E+00 -0.00000000000E+00 -0.15496875830E+03  0.15496875830E+03  0.00000000000E+00 0.  1.
         25    2    1    2    0    0 -0.18265556333E+02 -0.45107533008E+02 -0.64920433728E+02  0.14902235426E+03  0.12499871708E+03 0.  0.
         23    2    1    2    0    0  0.18265556333E+02  0.45107533008E+02  0.79383434387E+01  0.10393307205E+03  0.91491781532E+02 0.  0.
          5    1    4    4  502    0 -0.21306620520E+02 -0.18472390112E+02  0.26377620302E+01  0.28709738121E+02  0.47000000000E+01 0. -1.
         -5    1    4    4    0  502  0.39572176853E+02  0.63579923119E+02  0.53005814085E+01  0.75223333933E+02  0.47000000000E+01 0.  1.
          5    1    3    3  503    0 -0.21410877319E+02  0.26239944814E+02 -0.69343286286E+02  0.77314563469E+02  0.47000000000E+01 0.  1.
         -5    1    3    3    0  503  0.31453209855E+01 -0.71347477822E+02  0.44228525577E+01  0.71707790793E+02  0.47000000000E+01 0.  1.
<mgrwt>
<rscale>  0 0.12575772E+03</rscale>
<asrwt>0</asrwt>
<pdfrwt beam="1">  1        2 0.15074872E-01 0.13413799E+03</pdfrwt>
<pdfrwt beam="2">  1       -2 0.23841347E-01 0.13413799E+03</pdfrwt>
<totfact> 0.56879489E+03</totfact>
</mgrwt>
</event>
<event>
 8    1  0.3551276E-004  0.1549073E+03  0.7546771E-02  0.1202655E+00
          3   -1    0    0  501    0  0.00000000000E+00  0.00000000000E+00  0.20801543798E+02  0.20801543798E+02  0.00000000000E+00 0. -1.
         -3   -1    0    0    0  501 -0.00000000000E+00 -0.00000000000E+00 -0.98248928266E+03  0.98248928266E+03  0.00000000000E+00 0.  1.
         25    2    1    2    0    0  0.47228521942E+02 -0.78361209399E+02 -0.47881807885E+03  0.50325244079E+03  0.12500101642E+03 0.  0.
         23    2    1    2    0    0 -0.47228521942E+02  0.78361209399E+02 -0.48286966002E+03  0.50003838567E+03  0.92218578153E+02 0.  0.
          5    1    4    4  502    0 -0.69056988445E+02  0.54447584374E+02 -0.25381301405E+03  0.26865692471E+03  0.47000000000E+01 0. -1.
         -5    1    3    3    0  503  0.15647089436E+02 -0.55959618564E+02 -0.45240766834E+03  0.45614811048E+03  0.47000000000E+01 0. -1.
          5    1    3    3  503    0  0.31581432506E+02 -0.22401590836E+02 -0.26410410507E+02  0.47104330313E+02  0.47000000000E+01 0. -1.
         -5    1    4    4    0  502  0.21828466502E+02  0.23913625025E+02 -0.22905664597E+03  0.23138146096E+03  0.47000000000E+01 0.  1.
<mgrwt>
<rscale>  0 0.14823824E+03</rscale>
<asrwt>0</asrwt>
<pdfrwt beam="1">  1        3 0.32002378E-02 0.15490728E+03</pdfrwt>
<pdfrwt beam="2">  1       -3 0.15115218E+00 0.15490728E+03</pdfrwt>
<totfact> 0.36709737E+02</totfact>
</mgrwt>
</event>
<event>
 8    1  0.3551276E-004  0.1350828E+03  0.7546771E-02  0.1232695E+00
          2   -1    0    0  501    0  0.00000000000E+00  0.00000000000E+00  0.92547672834E+02  0.92547672834E+02  0.00000000000E+00 0.  1.
         -2   -1    0    0    0  501 -0.00000000000E+00 -0.00000000000E+00 -0.16781794953E+03  0.16781794953E+03  0.00000000000E+00 0. -1.
         25    2    1    2    0    0  0.40744581211E+02 -0.31026282987E+02 -0.56091715915E+01  0.13519920033E+03  0.12499843931E+03 0.  0.
         23    2    1    2    0    0 -0.40744581211E+02  0.31026282987E+02 -0.69661105107E+02  0.12516642203E+03  0.90505317553E+02 0.  0.
          5    1    4    4  502    0 -0.38436103979E+02  0.59178988128E+01 -0.86175716882E+02  0.94660972928E+02  0.47000000000E+01 0. -1.
         -5    1    4    4    0  502 -0.23084772318E+01  0.25108384174E+02  0.16514611775E+02  0.30505449104E+02  0.47000000000E+01 0.  1.
          5    1    3    3  503    0 -0.22820486455E+02 -0.57685474345E+02 -0.18525879541E+02  0.64912916782E+02  0.47000000000E+01 0. -1.
         -5    1    3    3    0  503  0.63565067666E+02  0.26659191358E+02  0.12916707949E+02  0.70286283552E+02  0.47000000000E+01 0. -1.
<mgrwt>
<rscale>  0 0.12653135E+03</rscale>
<asrwt>0</asrwt>
<pdfrwt beam="1">  1        2 0.14238104E-01 0.13508279E+03</pdfrwt>
<pdfrwt beam="2">  1       -2 0.25818146E-01 0.13508279E+03</pdfrwt>
<totfact> 0.52958870E+03</totfact>
</mgrwt>
</event>
<event>
 8    1  0.3551276E-004  0.2705415E+03  0.7546771E-02  0.1103200E+00
         -1   -1    0    0    0  501 -0.00000000000E+00  0.00000000000E+00  0.15509439150E+03  0.15509439150E+03  0.00000000000E+00 0.  1.
          1   -1    0    0  501    0  0.00000000000E+00 -0.00000000000E+00 -0.44586293221E+03  0.44586293221E+03  0.00000000000E+00 0. -1.
         25    2    1    2    0    0 -0.23203755434E+03  0.61033099994E+02 -0.15059318992E+03  0.30963048588E+03  0.12500505195E+03 0.  0.
         23    2    1    2    0    0  0.23203755434E+03 -0.61033099994E+02 -0.14017535079E+03  0.29132683783E+03  0.87497037376E+02 0.  0.
          5    1    4    4  502    0  0.42494461465E+02 -0.40452209556E+02 -0.61189974477E+02  0.84902670686E+02  0.47000000000E+01 0. -1.
         -5    1    3    3    0  503 -0.19883159928E+03  0.35016400046E+02 -0.16903358195E+03  0.26335260578E+03  0.47000000000E+01 0. -1.
          5    1    3    3  503    0 -0.33205955061E+02  0.26016699949E+02  0.18440392032E+02  0.46277880094E+02  0.47000000000E+01 0. -1.
         -5    1    4    4    0  502  0.18954309288E+03 -0.20580890438E+02 -0.78985376314E+02  0.20642416714E+03  0.47000000000E+01 0.  1.
<mgrwt>
<rscale>  0 0.26667046E+03</rscale>
<asrwt>0</asrwt>
<pdfrwt beam="1">  1        1 0.68594295E-01 0.27054155E+03</pdfrwt>
<pdfrwt beam="2">  1       -1 0.23860676E-01 0.27054155E+03</pdfrwt>
<totfact> 0.79393254E+02</totfact>
</mgrwt>
</event>
<event>
 8    1  0.3551276E-004  0.2874831E+03  0.7546771E-02  0.1093511E+00
          1   -1    0    0  501    0  0.00000000000E+00  0.00000000000E+00  0.15154073998E+03  0.15154073998E+03  0.00000000000E+00 0.  1.
         -1   -1    0    0    0  501 -0.00000000000E+00 -0.00000000000E+00 -0.52874245421E+03  0.52874245421E+03  0.00000000000E+00 0. -1.
         25    2    1    2    0    0 -0.23801038401E+03 -0.10184020159E+03 -0.23705806330E+03  0.37261648426E+03  0.12500459756E+03 0.  0.
         23    2    1    2    0    0  0.23801038401E+03  0.10184020159E+03 -0.14014365094E+03  0.30766670993E+03  0.89432611175E+02 0.  0.
          5    1    4    4  502    0  0.15879147834E+03  0.52158694148E+02 -0.13321484466E+03  0.21378388107E+03  0.47000000000E+01 0. -1.
         -5    1    4    4    0  502  0.79218905671E+02  0.49681507443E+02 -0.69288062810E+01  0.93882828856E+02  0.47000000000E+01 0.  1.
          5    1    3    3  503    0 -0.21982561797E+03 -0.41693216021E+02 -0.19526237033E+03  0.29700355190E+03  0.47000000000E+01 0.  1.
         -5    1    3    3    0  503 -0.18184766045E+02 -0.60146985569E+02 -0.41795692968E+02  0.75612932359E+02  0.47000000000E+01 0.  1.
<mgrwt>
<rscale>  0 0.28402417E+03</rscale>
<asrwt>0</asrwt>
<pdfrwt beam="1">  1        1 0.23313960E-01 0.28748308E+03</pdfrwt>
<pdfrwt beam="2">  1       -1 0.81344994E-01 0.28748308E+03</pdfrwt>
<totfact> 0.33092585E+02</totfact>
</mgrwt>
</event>
<event>
 8    1  0.3551276E-004  0.1394377E+03  0.7546771E-02  0.1225288E+00
          2   -1    0    0  501    0  0.00000000000E+00  0.00000000000E+00  0.32550442907E+03  0.32550442907E+03  0.00000000000E+00 0.  1.
         -2   -1    0    0    0  501 -0.00000000000E+00 -0.00000000000E+00 -0.51323029352E+02  0.51323029352E+02  0.00000000000E+00 0. -1.
         25    2    1    2    0    0 -0.16863023013E+02 -0.59447863939E+02  0.10346721132E+03  0.17363279469E+03  0.12499789399E+03 0.  0.
         23    2    1    2    0    0  0.16863023013E+02  0.59447863939E+02  0.17071418841E+03  0.20319466374E+03  0.91248710540E+02 0.  0.
          5    1    4    4  502    0 -0.15373063187E+02  0.68210746901E+02  0.79693042087E+02  0.10612307959E+03  0.47000000000E+01 0. -1.
         -5    1    3    3    0  503 -0.22468348366E+02 -0.83957576038E+02  0.24199503402E+02  0.90340507069E+02  0.47000000000E+01 0. -1.
          5    1    3    3  503    0  0.56053253536E+01  0.24509712099E+02  0.79267707914E+02  0.83292287623E+02  0.47000000000E+01 0. -1.
         -5    1    4    4    0  502  0.32236086200E+02 -0.87628829617E+01  0.91021146319E+02  0.97071584145E+02  0.47000000000E+01 0.  1.
<mgrwt>
<rscale>  0 0.13147215E+03</rscale>
<asrwt>0</asrwt>
<pdfrwt beam="1">  1        2 0.50077603E-01 0.13943774E+03</pdfrwt>
<pdfrwt beam="2">  1       -2 0.78958509E-02 0.13943774E+03</pdfrwt>
<totfact> 0.91761282E+03</totfact>
</mgrwt>
</event>
<event>
 8    1  0.3551276E-004  0.2934312E+03  0.7546771E-02  0.1090269E+00
          2   -1    0    0  501    0  0.00000000000E+00  0.00000000000E+00  0.85438208223E+03  0.85438208223E+03  0.00000000000E+00 0. -1.
         -2   -1    0    0    0  501 -0.00000000000E+00 -0.00000000000E+00 -0.13594227734E+03  0.13594227734E+03  0.00000000000E+00 0.  1.
         25    2    1    2    0    0  0.19833343500E+03 -0.17646825341E+03  0.97923627056E+02  0.30933942227E+03  0.12499858213E+03 0.  0.
         23    2    1    2    0    0 -0.19833343500E+03  0.17646825341E+03  0.62051617783E+03  0.68098493730E+03  0.90680549047E+02 0.  0.
          5    1    4    4  502    0 -0.14580672664E+03  0.16591892997E+03  0.43585738402E+03  0.48865370362E+03  0.47000000000E+01 0. -1.
         -5    1    3    3    0  503  0.11072088979E+03 -0.80645182449E+02  0.11420076780E+03  0.17840029780E+03  0.47000000000E+01 0. -1.
          5    1    3    3  503    0  0.87612545209E+02 -0.95823070962E+02 -0.16277140745E+02  0.13093912447E+03  0.47000000000E+01 0. -1.
         -5    1    4    4    0  502 -0.52526708360E+02  0.10549323436E+02  0.18465879381E+03  0.19233123367E+03  0.47000000000E+01 0.  1.
<mgrwt>
<rscale>  0 0.29015270E+03</rscale>
<asrwt>0</asrwt>
<pdfrwt beam="1">  1        2 0.13144339E+00 0.29343115E+03</pdfrwt>
<pdfrwt beam="2">  1       -2 0.20914197E-01 0.29343115E+03</pdfrwt>
<totfact> 0.63539124E+02</totfact>
</mgrwt>
</event>
<event>
 8    1  0.3551276E-004  0.2200374E+03  0.7546771E-02  0.1137547E+00
          2   -1    0    0  501    0  0.00000000000E+00  0.00000000000E+00  0.33526525330E+03  0.33526525330E+03  0.00000000000E+00 0. -1.
         -2   -1    0    0    0  501 -0.00000000000E+00 -0.00000000000E+00 -0.13985886373E+03  0.13985886373E+03  0.00000000000E+00 0.  1.
         25    2    1    2    0    0  0.11918696817E+02  0.18068991150E+03  0.15708406013E+03  0.27035508521E+03  0.12500228278E+03 0.  0.
         23    2    1    2    0    0 -0.11918696817E+02 -0.18068991150E+03  0.38322329443E+02  0.20476903182E+03  0.87583423134E+02 0.  0.
          5    1    4    4  502    0 -0.40710416104E+02 -0.79230393732E+02  0.43146935098E+02  0.99088552713E+02  0.47000000000E+01 0. -1.
         -5    1    3    3    0  503  0.30894130931E+02  0.19351046848E+03  0.13358728785E+03  0.23720961661E+03  0.47000000000E+01 0. -1.
          5    1    3    3  503    0 -0.18975434114E+02 -0.12820556981E+02  0.23496772273E+02  0.33145468595E+02  0.47000000000E+01 0. -1.
         -5    1    4    4    0  502  0.28791719288E+02 -0.10145951777E+03 -0.48246056547E+01  0.10568047911E+03  0.47000000000E+01 0.  1.
<mgrwt>
<rscale>  0 0.21515578E+03</rscale>
<asrwt>0</asrwt>
<pdfrwt beam="1">  1        2 0.51579270E-01 0.22003743E+03</pdfrwt>
<pdfrwt beam="2">  1       -2 0.21516748E-01 0.22003743E+03</pdfrwt>
<totfact> 0.17819021E+03</totfact>
</mgrwt>
</event>
<event>
 8    1  0.3551276E-004  0.1369683E+03  0.7546771E-02  0.1229635E+00
          2   -1    0    0  501    0  0.00000000000E+00  0.00000000000E+00  0.19429182320E+03  0.19429182320E+03  0.00000000000E+00 0. -1.
         -2   -1    0    0    0  501 -0.00000000000E+00 -0.00000000000E+00 -0.86719543462E+02  0.86719543462E+02  0.00000000000E+00 0.  1.
         25    2    1    2    0    0 -0.29427017089E+02 -0.47638245101E+02  0.10853562457E+03  0.17475784148E+03  0.12499987851E+03 0.  0.
         23    2    1    2    0    0  0.29427017089E+02  0.47638245101E+02 -0.96334482593E+00  0.10625352518E+03  0.90296909413E+02 0.  0.
          5    1    3    3  502    0 -0.55695137343E+01 -0.72438483107E+02  0.14125705939E+02  0.74161842522E+02  0.47000000000E+01 0. -1.
         -5    1    3    3    0  502 -0.23857503354E+02  0.24800238005E+02  0.94409918628E+02  0.10059599896E+03  0.47000000000E+01 0. -1.
          5    1    4    4  503    0  0.26991964593E+02  0.18165432475E+02  0.42341174869E+02  0.53604236576E+02  0.47000000000E+01 0. -1.
         -5    1    4    4    0  503  0.24350524953E+01  0.29472812627E+02 -0.43304519695E+02  0.52649288607E+02  0.47000000000E+01 0.  1.
<mgrwt>
<rscale>  0 0.12854242E+03</rscale>
<asrwt>0</asrwt>
<pdfrwt beam="1">  1        2 0.29891050E-01 0.13696832E+03</pdfrwt>
<pdfrwt beam="2">  1       -2 0.13341468E-01 0.13696832E+03</pdfrwt>
<totfact> 0.69544830E+03</totfact>
</mgrwt>
</event>
<event>
 8    1  0.3551276E-004  0.1263821E+03  0.7546771E-02  0.1251586E+00
          1   -1    0    0  501    0  0.00000000000E+00  0.00000000000E+00  0.53605247460E+02  0.53605247460E+02  0.00000000000E+00 0. -1.
         -1   -1    0    0    0  501 -0.00000000000E+00 -0.00000000000E+00 -0.36987086468E+03  0.36987086468E+03  0.00000000000E+00 0.  1.
         25    2    1    2    0    0  0.45954153521E+01  0.18064192676E+02 -0.37902728196E+02  0.13194337657E+03  0.12500001967E+03 0.  0.
         23    2    1    2    0    0 -0.45954153521E+01 -0.18064192676E+02 -0.27836288902E+03  0.29153273557E+03  0.84604994081E+02 0.  0.
          5    1    4    4  502    0 -0.93715195742E+01 -0.41414734595E+02 -0.71816059092E+02  0.83562204160E+02  0.47000000000E+01 0. -1.
         -5    1    4    4    0  502  0.47761042220E+01  0.23350541918E+02 -0.20654682993E+03  0.20797053141E+03  0.47000000000E+01 0.  1.
          5    1    3    3  503    0 -0.25271246212E+02 -0.36582510095E+02  0.17930394537E+02  0.48171620049E+02  0.47000000000E+01 0.  1.
         -5    1    3    3    0  503  0.29866661564E+02  0.54646702771E+02 -0.55833122733E+02  0.83771756522E+02  0.47000000000E+01 0.  1.
<mgrwt>
<rscale>  0 0.11499692E+03</rscale>
<asrwt>0</asrwt>
<pdfrwt beam="1">  1        1 0.82469611E-02 0.12638211E+03</pdfrwt>
<pdfrwt beam="2">  1       -1 0.56903210E-01 0.12638211E+03</pdfrwt>
<totfact> 0.25861239E+03</totfact>
</mgrwt>
</event>
<event>
 8    1  0.3551276E-004  0.1311117E+03  0.7546771E-02  0.1239089E+00
         -2   -1    0    0    0  501 -0.00000000000E+00  0.00000000000E+00  0.23533943585E+03  0.23533943585E+03  0.00000000000E+00 0. -1.
          2   -1    0    0  501    0  0.00000000000E+00 -0.00000000000E+00 -0.68330687413E+02  0.68330687413E+02  0.00000000000E+00 0.  1.
         25    2    1    2    0    0  0.65313900343E+01 -0.39020312247E+02  0.15522423776E+03  0.20318672804E+03  0.12500015455E+03 0.  0.
         23    2    1    2    0    0 -0.65313900343E+01  0.39020312247E+02  0.11784510676E+02  0.10048339523E+03  0.91612194609E+02 0.  0.
          5    1    3    3  502    0 -0.26450954430E+02  0.12671509769E+02 -0.62885708470E+01  0.30362086117E+02  0.47000000000E+01 0. -1.
         -5    1    4    4    0  503 -0.29270068535E+02  0.26900897534E+02 -0.30786416496E+02  0.50500382582E+02  0.47000000000E+01 0.  1.
          5    1    4    4  503    0  0.22738678501E+02  0.12119414712E+02  0.42570927172E+02  0.49983012647E+02  0.47000000000E+01 0. -1.
         -5    1    3    3    0  502  0.32982344464E+02 -0.51691822016E+02  0.16151280861E+03  0.17282464192E+03  0.47000000000E+01 0. -1.
<mgrwt>
<rscale>  0 0.12246242E+03</rscale>
<asrwt>0</asrwt>
<pdfrwt beam="1">  1        2 0.10512414E-01 0.13111172E+03</pdfrwt>
<pdfrwt beam="2">  1       -2 0.36206067E-01 0.13111172E+03</pdfrwt>
<totfact> 0.41311467E+03</totfact>
</mgrwt>
</event>
<event>
 8    1  0.3551276E-004  0.1720938E+03  0.7546771E-02  0.1181848E+00
         -1   -1    0    0    0  501 -0.00000000000E+00  0.00000000000E+00  0.47987354671E+03  0.47987354671E+03  0.00000000000E+00 0.  1.
          1   -1    0    0  501    0  0.00000000000E+00 -0.00000000000E+00 -0.58120466353E+02  0.58120466353E+02  0.00000000000E+00 0. -1.
         25    2    1    2    0    0 -0.32919172931E+02  0.11361589301E+03  0.15275043242E+03  0.23010644042E+03  0.12499614485E+03 0.  0.
         23    2    1    2    0    0  0.32919172931E+02 -0.11361589301E+03  0.26900264793E+03  0.30788757264E+03  0.91869960818E+02 0.  0.
          5    1    3    3  502    0  0.28840642939E+02  0.10416423763E+03  0.10979945942E+03  0.15414273377E+03  0.47000000000E+01 0.  1.
         -5    1    4    4    0  503 -0.21681741585E+02 -0.76240865574E+02  0.18128602260E+03  0.19791280780E+03  0.47000000000E+01 0.  1.
          5    1    4    4  503    0  0.54600914515E+02 -0.37375027435E+02  0.87716625335E+02  0.10997476484E+03  0.47000000000E+01 0. -1.
         -5    1    3    3    0  502 -0.61759815870E+02  0.94516553779E+01  0.42950973007E+02  0.75963706649E+02  0.47000000000E+01 0.  1.
<mgrwt>
<rscale>  0 0.16621999E+03</rscale>
<asrwt>0</asrwt>
<pdfrwt beam="1">  1        1 0.89416105E-02 0.17209381E+03</pdfrwt>
<pdfrwt beam="2">  1       -1 0.73826697E-01 0.17209381E+03</pdfrwt>
<totfact> 0.14180343E+03</totfact>
</mgrwt>
</event>
<event>
 8    1  0.3551276E-004  0.1275552E+03  0.7546771E-02  0.1247322E+00
         -1   -1    0    0    0  501 -0.00000000000E+00  0.00000000000E+00  0.13141399106E+03  0.13141399106E+03  0.00000000000E+00 0.  1.
          1   -1    0    0  501    0  0.00000000000E+00 -0.00000000000E+00 -0.91564559591E+02  0.91564559591E+02  0.00000000000E+00 0. -1.
         25    2    1    2    0    0 -0.25349867774E+02 -0.13805216385E+01  0.25887523922E+02  0.13015569108E+03  0.12500327352E+03 0.  0.
         23    2    1    2    0    0  0.25349867774E+02  0.13805216385E+01  0.13961907544E+02  0.92822859565E+02  0.88185184466E+02 0.  0.
          5    1    3    3  502    0  0.36551469284E+02  0.28092866311E+02 -0.16760225551E+02  0.49276913508E+02  0.47000000000E+01 0.  1.
         -5    1    3    3    0  502 -0.61901337059E+02 -0.29473387949E+02  0.42647749473E+02  0.80878777575E+02  0.47000000000E+01 0.  1.
          5    1    4    4  503    0 -0.30039741393E+02  0.12111110120E+02  0.15442217666E+02  0.36188632714E+02  0.47000000000E+01 0. -1.
         -5    1    4    4    0  503  0.55389609167E+02 -0.10730588481E+02 -0.14803101215E+01  0.56634226850E+02  0.47000000000E+01 0.  1.
<mgrwt>
<rscale>  0 0.11747492E+03</rscale>
<asrwt>0</asrwt>
<pdfrwt beam="1">  1        1 0.14086855E-01 0.12755524E+03</pdfrwt>
<pdfrwt beam="2">  1       -1 0.20217537E-01 0.12755524E+03</pdfrwt>
<totfact> 0.75494131E+03</totfact>
</mgrwt>
</event>
<event>
 8    1  0.3551276E-004  0.1258236E+03  0.7546771E-02  0.1246846E+00
         -2   -1    0    0    0  501 -0.00000000000E+00  0.00000000000E+00  0.13422934320E+03  0.13422934320E+03  0.00000000000E+00 0. -1.
          2   -1    0    0  501    0  0.00000000000E+00 -0.00000000000E+00 -0.95168636120E+02  0.95168636120E+02  0.00000000000E+00 0.  1.
         25    2    1    2    0    0 -0.13520649684E+02 -0.48154106154E+01  0.15297158548E+01  0.12583290226E+03  0.12500233243E+03 0.  0.
         23    2    1    2    0    0  0.13520649684E+02  0.48154106154E+01  0.37530991221E+02  0.10356507705E+03  0.95452363699E+02 0.  0.
          5    1    4    4  502    0 -0.34253241906E+02 -0.22538315060E+02  0.15655581002E+02  0.44141221589E+02  0.47000000000E+01 0. -1.
         -5    1    4    4    0  502  0.47773891590E+02  0.27353725675E+02  0.21875410219E+02  0.59423855464E+02  0.47000000000E+01 0.  1.
          5    1    3    3  503    0 -0.20826791223E+02 -0.57876487461E+02 -0.24150031016E+02  0.66247694538E+02  0.47000000000E+01 0. -1.
         -5    1    3    3    0  503  0.73061415389E+01  0.53061076846E+02  0.25679746871E+02  0.59585207725E+02  0.47000000000E+01 0. -1.
<mgrwt>
<rscale>  0 0.11775571E+03</rscale>
<asrwt>0</asrwt>
<pdfrwt beam="1">  1        2 0.14641329E-01 0.12582360E+03</pdfrwt>
<pdfrwt beam="2">  1       -2 0.20650668E-01 0.12582360E+03</pdfrwt>
<totfact> 0.74939234E+03</totfact>
</mgrwt>
</event>
<event>
 8    1  0.3551276E-004  0.1357737E+03  0.7546771E-02  0.1230220E+00
          2   -1    0    0  501    0  0.00000000000E+00  0.00000000000E+00  0.14855484314E+03  0.14855484314E+03  0.00000000000E+00 0. -1.
         -2   -1    0    0    0  501 -0.00000000000E+00 -0.00000000000E+00 -0.11558158426E+03  0.11558158426E+03  0.00000000000E+00 0.  1.
         25    2    1    2    0    0 -0.31792936464E+02 -0.42406354205E+02  0.66622420204E+02  0.15123835593E+03  0.12500161497E+03 0.  0.
         23    2    1    2    0    0  0.31792936464E+02  0.42406354205E+02 -0.33649161327E+02  0.11289807146E+03  0.93832930232E+02 0.  0.
          5    1    4    4  502    0  0.63811477569E+02  0.16342320996E+02 -0.23781940224E+02  0.70190076263E+02  0.47000000000E+01 0. -1.
         -5    1    4    4    0  502 -0.32018541105E+02  0.26064033208E+02 -0.98672211031E+01  0.42707995198E+02  0.47000000000E+01 0.  1.
          5    1    3    3  503    0 -0.53168436338E+02  0.29232428229E+02  0.30769856037E+02  0.68193046004E+02  0.47000000000E+01 0.  1.
         -5    1    3    3    0  503  0.21375499874E+02 -0.71638782434E+02  0.35852564168E+02  0.83045309927E+02  0.47000000000E+01 0.  1.
<mgrwt>
<rscale>  0 0.12815427E+03</rscale>
<asrwt>0</asrwt>
<pdfrwt beam="1">  1        2 0.22854591E-01 0.13577368E+03</pdfrwt>
<pdfrwt beam="2">  1       -2 0.17781782E-01 0.13577368E+03</pdfrwt>
<totfact> 0.58275627E+03</totfact>
</mgrwt>
</event>
<event>
 8    1  0.3551276E-004  0.1342991E+03  0.7546771E-02  0.1233721E+00
          1   -1    0    0  501    0  0.00000000000E+00  0.00000000000E+00  0.56005766582E+02  0.56005766582E+02  0.00000000000E+00 0. -1.
         -1   -1    0    0    0  501 -0.00000000000E+00 -0.00000000000E+00 -0.27541422432E+03  0.27541422432E+03  0.00000000000E+00 0.  1.
         25    2    1    2    0    0 -0.45578233471E+02 -0.18277815658E+02 -0.16994525774E+03  0.21660478550E+03  0.12499915425E+03 0.  0.
         23    2    1    2    0    0  0.45578233471E+02  0.18277815658E+02 -0.49463200000E+02  0.11481520540E+03  0.91238529831E+02 0.  0.
          5    1    4    4  502    0  0.56267884668E+02 -0.16921469258E+02 -0.84939255076E+01  0.59553738232E+02  0.47000000000E+01 0. -1.
         -5    1    4    4    0  502 -0.10689651197E+02  0.35199284917E+02 -0.40969274492E+02  0.55261467170E+02  0.47000000000E+01 0.  1.
          5    1    3    3  503    0 -0.50620429478E+02  0.32962769565E+02 -0.14895130120E+03  0.16080283638E+03  0.47000000000E+01 0.  1.
         -5    1    3    3    0  503  0.50421960070E+01 -0.51240585224E+02 -0.20993956538E+02  0.55801949122E+02  0.47000000000E+01 0.  1.
<mgrwt>
<rscale>  0 0.12586637E+03</rscale>
<asrwt>0</asrwt>
<pdfrwt beam="1">  1        1 0.86162716E-02 0.13429908E+03</pdfrwt>
<pdfrwt beam="2">  1       -1 0.42371420E-01 0.13429908E+03</pdfrwt>
<totfact> 0.41841880E+03</totfact>
</mgrwt>
</event>
<event>
 8    1  0.3551276E-004  0.2101681E+03  0.7546771E-02  0.1144081E+00
          2   -1    0    0  501    0  0.00000000000E+00  0.00000000000E+00  0.12373745893E+04  0.12373745893E+04  0.00000000000E+00 0. -1.
         -2   -1    0    0    0  501 -0.00000000000E+00 -0.00000000000E+00 -0.35267489462E+02  0.35267489462E+02  0.00000000000E+00 0.  1.
         25    2    1    2    0    0 -0.12635798854E+03  0.11217194493E+03  0.47815614540E+03  0.52230634650E+03  0.12498693416E+03 0.  0.
         23    2    1    2    0    0  0.12635798854E+03 -0.11217194493E+03  0.72395095443E+03  0.75033573225E+03  0.10173416428E+03 0.  0.
          5    1    4    4  502    0  0.77252350881E+02 -0.41830006077E+02  0.18829605907E+03  0.20783447978E+03  0.47000000000E+01 0. -1.
         -5    1    4    4    0  502  0.49105637661E+02 -0.70341938852E+02  0.53565489536E+03  0.54250125247E+03  0.47000000000E+01 0.  1.
          5    1    3    3  503    0 -0.67464534431E+02 -0.14988426256E+02  0.13882122363E+03  0.15514360592E+03  0.47000000000E+01 0. -1.
         -5    1    3    3    0  503 -0.58893454111E+02  0.12716037119E+03  0.33933492178E+03  0.36716274059E+03  0.47000000000E+01 0. -1.
<mgrwt>
<rscale>  0 0.20685546E+03</rscale>
<asrwt>0</asrwt>
<pdfrwt beam="1">  1        2 0.19036529E+00 0.21016808E+03</pdfrwt>
<pdfrwt beam="2">  1       -2 0.54257686E-02 0.21016808E+03</pdfrwt>
<totfact> 0.32744133E+03</totfact>
</mgrwt>
</event>
<event>
 8    1  0.3551276E-004  0.1297205E+03  0.7546771E-02  0.1241798E+00
         -2   -1    0    0    0  501 -0.00000000000E+00  0.00000000000E+00  0.12650928685E+03  0.12650928685E+03  0.00000000000E+00 0.  1.
          2   -1    0    0  501    0  0.00000000000E+00 -0.00000000000E+00 -0.14724429029E+03  0.14724429029E+03  0.00000000000E+00 0. -1.
         25    2    1    2    0    0  0.81791922471E+01 -0.33691660799E+02  0.63918467329E+02  0.14461317572E+03  0.12500149172E+03 0.  0.
         23    2    1    2    0    0 -0.81791922471E+01  0.33691660799E+02 -0.84653470767E+02  0.12914040143E+03  0.91153749102E+02 0.  0.
          5    1    4    4  502    0  0.18560567796E+02 -0.16143937260E+02 -0.64037738595E+02  0.68760768986E+02  0.47000000000E+01 0. -1.
         -5    1    4    4    0  502 -0.26739760043E+02  0.49835598059E+02 -0.20615732171E+02  0.60379632444E+02  0.47000000000E+01 0.  1.
          5    1    3    3  503    0 -0.35520032967E+02 -0.35490529537E+02 -0.16405831897E+02  0.53032930798E+02  0.47000000000E+01 0.  1.
         -5    1    3    3    0  503  0.43699225214E+02  0.17988687382E+01  0.80324299226E+02  0.91580244918E+02  0.47000000000E+01 0.  1.
<mgrwt>
<rscale>  0 0.12079107E+03</rscale>
<asrwt>0</asrwt>
<pdfrwt beam="1">  1        2 0.22652968E-01 0.12972047E+03</pdfrwt>
<pdfrwt beam="2">  1       -2 0.19462967E-01 0.12972047E+03</pdfrwt>
<totfact> 0.50436629E+03</totfact>
</mgrwt>
</event>
<event>
 8    1  0.3551276E-004  0.1390652E+03  0.7546771E-02  0.1226284E+00
          2   -1    0    0  501    0  0.00000000000E+00  0.00000000000E+00  0.22266637128E+03  0.22266637128E+03  0.00000000000E+00 0.  1.
         -2   -1    0    0    0  501 -0.00000000000E+00 -0.00000000000E+00 -0.69315641021E+02  0.69315641021E+02  0.00000000000E+00 0. -1.
         25    2    1    2    0    0 -0.58683221569E+02 -0.16453590640E+02  0.95978559948E+02  0.16897043379E+03  0.12499872954E+03 0.  0.
         23    2    1    2    0    0  0.58683221569E+02  0.16453590640E+02  0.57372170315E+02  0.12301157851E+03  0.90143448920E+02 0.  0.
          5    1    3    3  502    0 -0.56925275725E+02  0.19828352431E+02  0.11332307741E+03  0.12844399733E+03  0.47000000000E+01 0. -1.
         -5    1    3    3    0  502 -0.17579458437E+01 -0.36281943071E+02 -0.17344517458E+02  0.40526436463E+02  0.47000000000E+01 0. -1.
          5    1    4    4  503    0  0.12416384836E+02  0.43369050935E+02  0.13342308817E+01  0.45375228522E+02  0.47000000000E+01 0. -1.
         -5    1    4    4    0  503  0.46266836733E+02 -0.26915460295E+02  0.56037939433E+02  0.77636349992E+02  0.47000000000E+01 0.  1.
<mgrwt>
<rscale>  0 0.13079287E+03</rscale>
<asrwt>0</asrwt>
<pdfrwt beam="1">  1        2 0.34256365E-01 0.13906518E+03</pdfrwt>
<pdfrwt beam="2">  1       -2 0.10663945E-01 0.13906518E+03</pdfrwt>
<totfact> 0.85946897E+03</totfact>
</mgrwt>
</event>
<event>
 8    1  0.3551276E-004  0.1384123E+03  0.7546771E-02  0.1226580E+00
          1   -1    0    0  501    0  0.00000000000E+00  0.00000000000E+00  0.45421349369E+03  0.45421349369E+03  0.00000000000E+00 0. -1.
         -1   -1    0    0    0  501 -0.00000000000E+00 -0.00000000000E+00 -0.33917201106E+02  0.33917201106E+02  0.00000000000E+00 0.  1.
         25    2    1    2    0    0 -0.37273334047E+02  0.46317400057E+02  0.22625171633E+03  0.26523158850E+03  0.12499341350E+03 0.  0.
         23    2    1    2    0    0  0.37273334047E+02 -0.46317400057E+02  0.19404457625E+03  0.22289910629E+03  0.92174351279E+02 0.  0.
          5    1    3    3  502    0 -0.22728282809E+02 -0.19086219973E+02  0.87759916565E+00  0.30061916317E+02  0.47000000000E+01 0. -1.
         -5    1    4    4    0  503  0.62571855993E+02 -0.13901450090E+02  0.14578628306E+03  0.15932425366E+03  0.47000000000E+01 0. -1.
          5    1    4    4  503    0 -0.25298521946E+02 -0.32415949967E+02  0.48258293195E+02  0.63574852631E+02  0.47000000000E+01 0.  1.
         -5    1    3    3    0  502 -0.14545051237E+02  0.65403620031E+02  0.22537411716E+03  0.23516967219E+03  0.47000000000E+01 0. -1.
<mgrwt>
<rscale>  0 0.13059224E+03</rscale>
<asrwt>0</asrwt>
<pdfrwt beam="1">  1        1 0.69878995E-01 0.13841227E+03</pdfrwt>
<pdfrwt beam="2">  1       -1 0.52180313E-02 0.13841227E+03</pdfrwt>
<totfact> 0.80930030E+03</totfact>
</mgrwt>
</event>
<event>
 8    1  0.3551276E-004  0.1379857E+03  0.7546771E-02  0.1226899E+00
          1   -1    0    0  501    0  0.00000000000E+00  0.00000000000E+00  0.11028876188E+04  0.11028876188E+04  0.00000000000E+00 0. -1.
         -1   -1    0    0    0  501 -0.00000000000E+00 -0.00000000000E+00 -0.14087593541E+02  0.14087593541E+02  0.00000000000E+00 0.  1.
         25    2    1    2    0    0  0.12176277025E+02 -0.57153828058E+02  0.66261521927E+03  0.67683010366E+03  0.12500095452E+03 0.  0.
         23    2    1    2    0    0 -0.12176277025E+02  0.57153828058E+02  0.42618480602E+03  0.44014510871E+03  0.93163329990E+02 0.  0.
          5    1    3    3  502    0 -0.29808520838E+02 -0.83026008727E+02  0.41166878304E+03  0.42104054789E+03  0.47000000000E+01 0.  1.
         -5    1    4    4    0  503 -0.40093687282E+02  0.12377297646E+02  0.85405161944E+02  0.95272414389E+02  0.47000000000E+01 0.  1.
          5    1    4    4  503    0  0.27917410257E+02  0.44776530412E+02  0.34077964408E+03  0.34487269432E+03  0.47000000000E+01 0. -1.
         -5    1    3    3    0  502  0.41984797863E+02  0.25872180668E+02  0.25094643623E+03  0.25578955577E+03  0.47000000000E+01 0.  1.
<mgrwt>
<rscale>  0 0.13037607E+03</rscale>
<asrwt>0</asrwt>
<pdfrwt beam="1">  1        1 0.16967495E+00 0.13798573E+03</pdfrwt>
<pdfrwt beam="2">  1       -1 0.21673230E-02 0.13798573E+03</pdfrwt>
<totfact> 0.79450103E+03</totfact>
</mgrwt>
</event>
<event>
 8    1  0.3551276E-004  0.1274197E+03  0.7546771E-02  0.1245752E+00
          1   -1    0    0  501    0  0.00000000000E+00  0.00000000000E+00  0.20355536685E+03  0.20355536685E+03  0.00000000000E+00 0. -1.
         -1   -1    0    0    0  501 -0.00000000000E+00 -0.00000000000E+00 -0.77333404465E+02  0.77333404465E+02  0.00000000000E+00 0.  1.
         25    2    1    2    0    0 -0.27293708372E+01  0.24551705835E+02  0.13480299385E+03  0.18549292237E+03  0.12500216547E+03 0.  0.
         23    2    1    2    0    0  0.27293708372E+01 -0.24551705835E+02 -0.85810314657E+01  0.95395848952E+02  0.91741474654E+02 0.  0.
          5    1    4    4  502    0  0.21795375776E+02  0.19584515149E+02  0.23116719456E+02  0.37617341178E+02  0.47000000000E+01 0. -1.
         -5    1    4    4    0  502 -0.19066004939E+02 -0.44136220984E+02 -0.31697750922E+02  0.57778507774E+02  0.47000000000E+01 0.  1.
          5    1    3    3  503    0  0.42377061545E+02  0.36856401321E+02  0.12552340801E+03  0.13759515116E+03  0.47000000000E+01 0.  1.
         -5    1    3    3    0  503 -0.45106432382E+02 -0.12304695487E+02  0.92795858410E+01  0.47897771207E+02  0.47000000000E+01 0.  1.
<mgrwt>
<rscale>  0 0.11840464E+03</rscale>
<asrwt>0</asrwt>
<pdfrwt beam="1">  1        1 0.31316210E-01 0.12741969E+03</pdfrwt>
<pdfrwt beam="2">  1       -1 0.11897447E-01 0.12741969E+03</pdfrwt>
<totfact> 0.63102087E+03</totfact>
</mgrwt>
</event>
<event>
 8    1  0.3551276E-004  0.1357226E+03  0.7546771E-02  0.1230341E+00
         -1   -1    0    0    0  501 -0.00000000000E+00  0.00000000000E+00  0.66680453309E+02  0.66680453309E+02  0.00000000000E+00 0.  1.
          1   -1    0    0  501    0  0.00000000000E+00 -0.00000000000E+00 -0.23248607349E+03  0.23248607349E+03  0.00000000000E+00 0. -1.
         25    2    1    2    0    0 -0.52646101444E+02 -0.48256815569E+01 -0.60503418526E+02  0.14859772248E+03  0.12500288106E+03 0.  0.
         23    2    1    2    0    0  0.52646101444E+02  0.48256815569E+01 -0.10530220165E+03  0.15056880431E+03  0.93741730088E+02 0.  0.
          5    1    4    4  502    0 -0.22055154546E+02 -0.89951155387E+01 -0.52767799475E+02  0.58085046329E+02  0.47000000000E+01 0. -1.
         -5    1    3    3    0  503 -0.10862997232E+02 -0.52973218881E+02  0.80416581354E+01  0.54871895293E+02  0.47000000000E+01 0.  1.
          5    1    3    3  503    0 -0.41783104211E+02  0.48147537324E+02 -0.68545076662E+02  0.93725827190E+02  0.47000000000E+01 0.  1.
         -5    1    4    4    0  502  0.74701255990E+02  0.13820797096E+02 -0.52534402179E+02  0.92483757985E+02  0.47000000000E+01 0.  1.
<mgrwt>
<rscale>  0 0.12807488E+03</rscale>
<asrwt>0</asrwt>
<pdfrwt beam="1">  1        1 0.35767088E-01 0.13572258E+03</pdfrwt>
<pdfrwt beam="2">  1       -1 0.10258531E-01 0.13572258E+03</pdfrwt>
<totfact> 0.67476431E+03</totfact>
</mgrwt>
</event>
<event>
 8    1  0.3551276E-004  0.1810058E+03  0.7546771E-02  0.1172487E+00
         -1   -1    0    0    0  501 -0.00000000000E+00  0.00000000000E+00  0.69999020126E+02  0.69999020126E+02  0.00000000000E+00 0.  1.
          1   -1    0    0  501    0  0.00000000000E+00 -0.00000000000E+00 -0.46192104380E+03  0.46192104380E+03  0.00000000000E+00 0. -1.
         25    2    1    2    0    0 -0.18643789675E+02 -0.12957652624E+03 -0.12085508343E+03  0.21764432995E+03  0.12500174449E+03 0.  0.
         23    2    1    2    0    0  0.18643789675E+02  0.12957652624E+03 -0.27106694025E+03  0.31427573397E+03  0.90301073225E+02 0.  0.
          5    1    3    3  502    0 -0.41413151772E+02 -0.14635306512E+03 -0.10499993104E+03  0.18488197405E+03  0.47000000000E+01 0. -1.
         -5    1    3    3    0  502  0.22769362097E+02  0.16776538882E+02 -0.15855152383E+02  0.32762355901E+02  0.47000000000E+01 0. -1.
          5    1    4    4  503    0  0.30952848337E+02  0.42498883748E+02 -0.18004026415E+03  0.18761881743E+03  0.47000000000E+01 0. -1.
         -5    1    4    4    0  503 -0.12309058661E+02  0.87077642488E+02 -0.91026676095E+02  0.12665691654E+03  0.47000000000E+01 0.  1.
<mgrwt>
<rscale>  0 0.17524360E+03</rscale>
<asrwt>0</asrwt>
<pdfrwt beam="1">  1        1 0.71064778E-01 0.18100581E+03</pdfrwt>
<pdfrwt beam="2">  1       -1 0.10769080E-01 0.18100581E+03</pdfrwt>
<totfact> 0.26845386E+03</totfact>
</mgrwt>
</event>
<event>
 8    1  0.3551276E-004  0.1275534E+03  0.7546771E-02  0.1246103E+00
          1   -1    0    0  501    0  0.00000000000E+00  0.00000000000E+00  0.16138332959E+02  0.16138332959E+02  0.00000000000E+00 0. -1.
         -1   -1    0    0    0  501 -0.00000000000E+00 -0.00000000000E+00 -0.77237992762E+03  0.77237992762E+03  0.00000000000E+00 0.  1.
         25    2    1    2    0    0  0.24908373778E+02  0.49797900353E+01 -0.48235895339E+03  0.49893890021E+03  0.12499856332E+03 0.  0.
         23    2    1    2    0    0 -0.24908373778E+02 -0.49797900353E+01 -0.27388264127E+03  0.28957936037E+03  0.90549872283E+02 0.  0.
          5    1    3    3  502    0 -0.13020970330E+02  0.59382563157E+02 -0.22127059905E+03  0.22951819640E+03  0.47000000000E+01 0.  1.
         -5    1    4    4    0  503 -0.47338953563E+02 -0.12566528894E+02 -0.25275261226E+03  0.25749731489E+03  0.47000000000E+01 0.  1.
          5    1    4    4  503    0  0.22430579784E+02  0.75867388582E+01 -0.21130029005E+02  0.32082045473E+02  0.47000000000E+01 0. -1.
         -5    1    3    3    0  502  0.37929344109E+02 -0.54402773122E+02 -0.26108835435E+03  0.26942070381E+03  0.47000000000E+01 0.  1.
<mgrwt>
<rscale>  0 0.11819611E+03</rscale>
<asrwt>0</asrwt>
<pdfrwt beam="1">  1        1 0.24828214E-02 0.12755339E+03</pdfrwt>
<pdfrwt beam="2">  1       -1 0.11882764E+00 0.12755339E+03</pdfrwt>
<totfact> 0.28945455E+03</totfact>
</mgrwt>
</event>
<event>
 8    1  0.3551276E-004  0.1375201E+03  0.7546771E-02  0.1231878E+00
          2   -1    0    0  501    0  0.00000000000E+00  0.00000000000E+00  0.52279673083E+02  0.52279673083E+02  0.00000000000E+00 0. -1.
         -2   -1    0    0    0  501 -0.00000000000E+00 -0.00000000000E+00 -0.34613216777E+03  0.34613216777E+03  0.00000000000E+00 0.  1.
         25    2    1    2    0    0  0.58308739392E+01 -0.57043861423E+02 -0.72581174070E+02  0.15549859082E+03  0.12499513471E+03 0.  0.
         23    2    1    2    0    0 -0.58308739392E+01  0.57043861423E+02 -0.22127132062E+03  0.24291325003E+03  0.82206134181E+02 0.  0.
          5    1    4    4  502    0  0.34806583437E+02  0.18156131630E+02 -0.58279873540E+02  0.70425684421E+02  0.47000000000E+01 0. -1.
         -5    1    3    3    0  503 -0.49032167500E+02 -0.70067313966E+01 -0.63310552452E+02  0.80520579894E+02  0.47000000000E+01 0. -1.
          5    1    3    3  503    0  0.54863041439E+02 -0.50037130027E+02 -0.92706216180E+01  0.74978010926E+02  0.47000000000E+01 0. -1.
         -5    1    4    4    0  502 -0.40637457376E+02  0.38887729793E+02 -0.16299144708E+03  0.17248756561E+03  0.47000000000E+01 0.  1.
<mgrwt>
<rscale>  0 0.12706415E+03</rscale>
<asrwt>0</asrwt>
<pdfrwt beam="1">  1        2 0.80430265E-02 0.13752013E+03</pdfrwt>
<pdfrwt beam="2">  1       -2 0.53251103E-01 0.13752013E+03</pdfrwt>
<totfact> 0.27433607E+03</totfact>
</mgrwt>
</event>
<event>
 8    1  0.3551276E-004  0.1687757E+03  0.7546771E-02  0.1186519E+00
         -1   -1    0    0    0  501 -0.00000000000E+00  0.00000000000E+00  0.53939704387E+02  0.53939704387E+02  0.00000000000E+00 0.  1.
          1   -1    0    0  501    0  0.00000000000E+00 -0.00000000000E+00 -0.10717520502E+04  0.10717520502E+04  0.00000000000E+00 0. -1.
         25    2    1    2    0    0  0.83840226752E+02 -0.76355083881E+02 -0.98711347193E+02  0.19552284719E+03  0.12500388494E+03 0.  0.
         23    2    1    2    0    0 -0.83840226752E+02  0.76355083881E+02 -0.91910099858E+03  0.93016890737E+03  0.87225387232E+02 0.  0.
          5    1    3    3  502    0  0.49054583551E+02 -0.78634497209E+02 -0.12203931889E+03  0.15331477969E+03  0.47000000000E+01 0. -1.
         -5    1    4    4    0  503 -0.31486210405E+02  0.67142771377E+01 -0.77434484284E+02  0.83991977708E+02  0.47000000000E+01 0.  1.
          5    1    4    4  503    0 -0.52354016347E+02  0.69640806743E+02 -0.84166651430E+03  0.84617692966E+03  0.47000000000E+01 0. -1.
         -5    1    3    3    0  502  0.34785643200E+02  0.22794133276E+01  0.23327971693E+02  0.42208067490E+02  0.47000000000E+01 0. -1.
<mgrwt>
<rscale>  0 0.16194434E+03</rscale>
<asrwt>0</asrwt>
<pdfrwt beam="1">  1        1 0.16488490E+00 0.16877575E+03</pdfrwt>
<pdfrwt beam="2">  1       -1 0.82984174E-02 0.16877575E+03</pdfrwt>
<totfact> 0.11550701E+03</totfact>
</mgrwt>
</event>
<event>
 8    1  0.3551276E-004  0.2631040E+03  0.7546771E-02  0.1107411E+00
         -2   -1    0    0    0  501 -0.00000000000E+00  0.00000000000E+00  0.59184132661E+02  0.59184132661E+02  0.00000000000E+00 0.  1.
          2   -1    0    0  501    0  0.00000000000E+00 -0.00000000000E+00 -0.13142060450E+04  0.13142060450E+04  0.00000000000E+00 0. -1.
         25    2    1    2    0    0  0.22985713131E+03  0.27645900392E+02 -0.37036248011E+03  0.45430395418E+03  0.12500047796E+03 0.  0.
         23    2    1    2    0    0 -0.22985713131E+03 -0.27645900392E+02 -0.88465943223E+03  0.91908622348E+03  0.92187735286E+02 0.  0.
          5    1    3    3  502    0  0.36110532462E+02 -0.55042154870E+01 -0.21587261671E+01  0.36891964457E+02  0.47000000000E+01 0.  1.
         -5    1    4    4    0  503 -0.31877297402E+02 -0.11164541800E+02 -0.29230456245E+03  0.29428703049E+03  0.47000000000E+01 0.  1.
          5    1    4    4  503    0 -0.19797983391E+03 -0.16481358592E+02 -0.59235486977E+03  0.62479919299E+03  0.47000000000E+01 0. -1.
         -5    1    3    3    0  502  0.19374659885E+03  0.33150115879E+02 -0.36820375395E+03  0.41741198973E+03  0.47000000000E+01 0.  1.
<mgrwt>
<rscale>  0 0.25955510E+03</rscale>
<asrwt>0</asrwt>
<pdfrwt beam="1">  1        2 0.20218554E+00 0.26310400E+03</pdfrwt>
<pdfrwt beam="2">  1       -2 0.91052513E-02 0.26310400E+03</pdfrwt>
<totfact> 0.13294902E+03</totfact>
</mgrwt>
</event>
<event>
 8    1  0.3551276E-004  0.1418458E+03  0.7546771E-02  0.1221641E+00
          1   -1    0    0  501    0  0.00000000000E+00  0.00000000000E+00  0.75943017084E+03  0.75943017084E+03  0.00000000000E+00 0. -1.
         -1   -1    0    0    0  501 -0.00000000000E+00 -0.00000000000E+00 -0.21994114235E+02  0.21994114235E+02  0.00000000000E+00 0.  1.
         25    2    1    2    0    0 -0.44563390186E+02 -0.50102982941E+02  0.47450820088E+03  0.49525574378E+03  0.12499605757E+03 0.  0.
         23    2    1    2    0    0  0.44563390186E+02  0.50102982941E+02  0.26292785573E+03  0.28616854129E+03  0.90912991711E+02 0.  0.
          5    1    4    4  502    0  0.13980244126E+02  0.34942174735E+02  0.24385182822E+03  0.24678372501E+03  0.47000000000E+01 0. -1.
         -5    1    3    3    0  503 -0.77001038950E+02  0.54118053845E+01  0.26486358806E+03  0.27592255782E+03  0.47000000000E+01 0.  1.
          5    1    3    3  503    0  0.32437648765E+02 -0.55514788325E+02  0.20964461282E+03  0.21933318596E+03  0.47000000000E+01 0.  1.
         -5    1    4    4    0  502  0.30583146060E+02  0.15160808206E+02  0.19076027509E+02  0.39384816286E+02  0.47000000000E+01 0.  1.
<mgrwt>
<rscale>  0 0.13399835E+03</rscale>
<asrwt>0</asrwt>
<pdfrwt beam="1">  1        1 0.11683539E+00 0.14184576E+03</pdfrwt>
<pdfrwt beam="2">  1       -1 0.33837105E-02 0.14184576E+03</pdfrwt>
<totfact> 0.76095676E+03</totfact>
</mgrwt>
</event>
<event>
 8    1  0.3551276E-004  0.1586858E+03  0.7546771E-02  0.1198448E+00
          1   -1    0    0  501    0  0.00000000000E+00  0.00000000000E+00  0.41364005070E+03  0.41364005070E+03  0.00000000000E+00 0. -1.
         -1   -1    0    0    0  501 -0.00000000000E+00 -0.00000000000E+00 -0.62773515787E+02  0.62773515787E+02  0.00000000000E+00 0.  1.
         25    2    1    2    0    0 -0.52037866684E+02  0.82753826144E+02  0.29026350437E+03  0.33080822286E+03  0.12500017213E+03 0.  0.
         23    2    1    2    0    0  0.52037866684E+02 -0.82753826144E+02  0.60603030551E+02  0.14560534363E+03  0.89286356586E+02 0.  0.
          5    1    4    4  502    0  0.53450741877E+02 -0.10863117813E+02  0.47259062770E+02  0.72322182971E+02  0.47000000000E+01 0. -1.
         -5    1    3    3    0  503 -0.72053389121E+02  0.51088411346E+02  0.27701922492E+03  0.29079796704E+03  0.47000000000E+01 0.  1.
          5    1    3    3  503    0  0.20015522437E+02  0.31665414798E+02  0.13244279449E+02  0.40010255821E+02  0.47000000000E+01 0.  1.
         -5    1    4    4    0  502 -0.14128751927E+01 -0.71890708331E+02  0.13343967781E+02  0.73283160663E+02  0.47000000000E+01 0.  1.
<mgrwt>
<rscale>  0 0.15165986E+03</rscale>
<asrwt>0</asrwt>
<pdfrwt beam="1">  1        1 0.63636929E-01 0.15868578E+03</pdfrwt>
<pdfrwt beam="2">  1       -1 0.96574642E-02 0.15868578E+03</pdfrwt>
<totfact> 0.36396235E+03</totfact>
</mgrwt>
</event>
<event>
 8    1  0.3551276E-004  0.1539214E+03  0.7546771E-02  0.1205927E+00
          4   -1    0    0  501    0  0.00000000000E+00  0.00000000000E+00  0.16333682507E+03  0.16333682507E+03  0.00000000000E+00 0. -1.
         -4   -1    0    0    0  501 -0.00000000000E+00 -0.00000000000E+00 -0.13255781818E+03  0.13255781818E+03  0.00000000000E+00 0.  1.
         25    2    1    2    0    0 -0.83197756917E+02  0.33807336700E+02  0.66143075692E+02  0.16753119770E+03  0.12500797162E+03 0.  0.
         23    2    1    2    0    0  0.83197756917E+02 -0.33807336700E+02 -0.35364068807E+02  0.12836344556E+03  0.84627147078E+02 0.  0.
          5    1    3    3  502    0 -0.18608963938E+02  0.73265424483E+02  0.47632698579E+02  0.89471112307E+02  0.47000000000E+01 0.  1.
         -5    1    4    4    0  503  0.52013021164E+02  0.18771979702E+02 -0.37560499045E+02  0.67012108466E+02  0.47000000000E+01 0.  1.
          5    1    4    4  503    0  0.31184735753E+02 -0.52579316402E+02  0.21964302388E+01  0.61351337093E+02  0.47000000000E+01 0. -1.
         -5    1    3    3    0  502 -0.64588792978E+02 -0.39458087783E+02  0.18510377113E+02  0.78060085388E+02  0.47000000000E+01 0.  1.
<mgrwt>
<rscale>  0 0.14564630E+03</rscale>
<asrwt>0</asrwt>
<pdfrwt beam="1">  1        4 0.25128742E-01 0.15392139E+03</pdfrwt>
<pdfrwt beam="2">  1       -4 0.20393510E-01 0.15392139E+03</pdfrwt>
<totfact> 0.54886035E+02</totfact>
</mgrwt>
</event>
<event>
 8    1  0.3551276E-004  0.1493638E+03  0.7546771E-02  0.1211041E+00
         -4   -1    0    0    0  501 -0.00000000000E+00  0.00000000000E+00  0.13298284823E+03  0.13298284823E+03  0.00000000000E+00 0.  1.
          4   -1    0    0  501    0  0.00000000000E+00 -0.00000000000E+00 -0.20122929768E+03  0.20122929768E+03  0.00000000000E+00 0. -1.
         25    2    1    2    0    0  0.63878468673E+02  0.51034541248E+02  0.57155393241E+02  0.15992587275E+03  0.12499825053E+03 0.  0.
         23    2    1    2    0    0 -0.63878468673E+02 -0.51034541248E+02 -0.12540184270E+03  0.17428627316E+03  0.89247407246E+02 0.  0.
          5    1    4    4  502    0 -0.17231105942E+02 -0.31534450630E+02 -0.11741995056E+03  0.12288558653E+03  0.47000000000E+01 0. -1.
         -5    1    3    3    0  503  0.96527335596E+02  0.14400257054E+02  0.24302907845E+02  0.10068572516E+03  0.47000000000E+01 0.  1.
          5    1    3    3  503    0 -0.32648866924E+02  0.36634284193E+02  0.32852485396E+02  0.59240147590E+02  0.47000000000E+01 0.  1.
         -5    1    4    4    0  502 -0.46647362731E+02 -0.19500090618E+02 -0.79818921402E+01  0.51400686629E+02  0.47000000000E+01 0.  1.
<mgrwt>
<rscale>  0 0.14171442E+03</rscale>
<asrwt>0</asrwt>
<pdfrwt beam="1">  1        4 0.30958354E-01 0.14936380E+03</pdfrwt>
<pdfrwt beam="2">  1       -4 0.20458900E-01 0.14936380E+03</pdfrwt>
<totfact> 0.36686049E+02</totfact>
</mgrwt>
</event>
<event>
 8    1  0.3551276E-004  0.1668851E+03  0.7546771E-02  0.1187928E+00
          1   -1    0    0  501    0  0.00000000000E+00  0.00000000000E+00  0.84655167481E+02  0.84655167481E+02  0.00000000000E+00 0. -1.
         -1   -1    0    0    0  501 -0.00000000000E+00 -0.00000000000E+00 -0.28578993595E+03  0.28578993595E+03  0.00000000000E+00 0.  1.
         25    2    1    2    0    0 -0.96791300496E+02 -0.53458320154E+02 -0.95110621117E+02  0.19208504736E+03  0.12499714927E+03 0.  0.
         23    2    1    2    0    0  0.96791300496E+02  0.53458320154E+02 -0.10602414735E+03  0.17836005607E+03  0.91350106372E+02 0.  0.
          5    1    4    4  502    0  0.83986774265E+02 -0.23664412116E+00 -0.43080739620E+02  0.94508594202E+02  0.47000000000E+01 0. -1.
         -5    1    3    3    0  503 -0.32337395426E+02  0.39139429012E+02 -0.13447194145E+02  0.52730627502E+02  0.47000000000E+01 0. -1.
          5    1    3    3  503    0 -0.64453905070E+02 -0.92597749166E+02 -0.81663426972E+02  0.13935441986E+03  0.47000000000E+01 0. -1.
         -5    1    4    4    0  502  0.12804526231E+02  0.53694964275E+02 -0.62943407733E+02  0.83851461868E+02  0.47000000000E+01 0.  1.
<mgrwt>
<rscale>  0 0.16068324E+03</rscale>
<asrwt>0</asrwt>
<pdfrwt beam="1">  1        1 0.13023872E-01 0.16688510E+03</pdfrwt>
<pdfrwt beam="2">  1       -1 0.43967683E-01 0.16688510E+03</pdfrwt>
<totfact> 0.22913687E+03</totfact>
</mgrwt>
</event>
<event>
 8    1  0.3551276E-004  0.1289109E+03  0.7546771E-02  0.1243545E+00
          2   -1    0    0  501    0  0.00000000000E+00  0.00000000000E+00  0.22447050837E+03  0.22447050837E+03  0.00000000000E+00 0. -1.
         -2   -1    0    0    0  501 -0.00000000000E+00 -0.00000000000E+00 -0.64148716298E+02  0.64148716298E+02  0.00000000000E+00 0.  1.
         25    2    1    2    0    0 -0.30311058010E+02  0.86602544899E+01  0.14048265565E+03  0.19066569221E+03  0.12499707757E+03 0.  0.
         23    2    1    2    0    0  0.30311058010E+02 -0.86602544899E+01  0.19839136417E+02  0.97953532455E+02  0.90595490733E+02 0.  0.
          5    1    4    4  502    0 -0.26423081637E+02 -0.12480388654E+02  0.27479755357E+02  0.40387699843E+02  0.47000000000E+01 0. -1.
         -5    1    4    4    0  502  0.56734139647E+02  0.38201341637E+01 -0.76406189404E+01  0.57565832612E+02  0.47000000000E+01 0.  1.
          5    1    3    3  503    0 -0.22577555126E+02  0.39962244088E+02 -0.32181368657E+00  0.46140226614E+02  0.47000000000E+01 0.  1.
         -5    1    3    3    0  503 -0.77335028838E+01 -0.31301989598E+02  0.14080446934E+03  0.14452546560E+03  0.47000000000E+01 0.  1.
<mgrwt>
<rscale>  0 0.11972876E+03</rscale>
<asrwt>0</asrwt>
<pdfrwt beam="1">  1        2 0.34533924E-01 0.12891094E+03</pdfrwt>
<pdfrwt beam="2">  1       -2 0.98690334E-02 0.12891094E+03</pdfrwt>
<totfact> 0.95713986E+03</totfact>
</mgrwt>
</event>
<event>
 8    1  0.3551276E-004  0.1262034E+03  0.7546771E-02  0.1247944E+00
          2   -1    0    0  501    0  0.00000000000E+00  0.00000000000E+00  0.39573899959E+03  0.39573899959E+03  0.00000000000E+00 0. -1.
         -2   -1    0    0    0  501 -0.00000000000E+00 -0.00000000000E+00 -0.51387707184E+02  0.51387707184E+02  0.00000000000E+00 0.  1.
         25    2    1    2    0    0  0.15880099361E+02 -0.70731779447E+01  0.32890785899E+03  0.35228921274E+03  0.12500040921E+03 0.  0.
         23    2    1    2    0    0 -0.15880099361E+02  0.70731779447E+01  0.15443433417E+02  0.94837494039E+02  0.91942608392E+02 0.  0.
          5    1    4    4  502    0  0.26994273057E+02 -0.23368856295E+02  0.21107653068E+02  0.41742271625E+02  0.47000000000E+01 0. -1.
         -5    1    4    4    0  502 -0.42874372418E+02  0.30442034240E+02 -0.56642196510E+01  0.53095222413E+02  0.47000000000E+01 0.  1.
          5    1    3    3  503    0  0.65165121347E+02 -0.75623884345E+00  0.25405705372E+03  0.26232449653E+03  0.47000000000E+01 0. -1.
         -5    1    3    3    0  503 -0.49285021986E+02 -0.63169391012E+01  0.74850805274E+02  0.89964716206E+02  0.47000000000E+01 0. -1.
<mgrwt>
<rscale>  0 0.11710878E+03</rscale>
<asrwt>0</asrwt>
<pdfrwt beam="1">  1        2 0.60882921E-01 0.12620345E+03</pdfrwt>
<pdfrwt beam="2">  1       -2 0.79058014E-02 0.12620345E+03</pdfrwt>
<totfact> 0.73907497E+03</totfact>
</mgrwt>
</event>
<event>
 8    1  0.3551276E-004  0.1326537E+03  0.7546771E-02  0.1237282E+00
          2   -1    0    0  501    0  0.00000000000E+00  0.00000000000E+00  0.65988652579E+02  0.65988652579E+02  0.00000000000E+00 0. -1.
         -2   -1    0    0    0  501 -0.00000000000E+00 -0.00000000000E+00 -0.20616965805E+03  0.20616965805E+03  0.00000000000E+00 0.  1.
         25    2    1    2    0    0  0.38999214705E+02  0.21239653707E+02 -0.90028208442E+02  0.16031868421E+03  0.12499976222E+03 0.  0.
         23    2    1    2    0    0 -0.38999214705E+02 -0.21239653707E+02 -0.50152797033E+02  0.11183962642E+03  0.89558569384E+02 0.  0.
          5    1    4    4  502    0 -0.31260425813E+02  0.14887024021E+02  0.14014034710E+02  0.37647322283E+02  0.47000000000E+01 0. -1.
         -5    1    4    4    0  502 -0.77387888916E+01 -0.36126677728E+02 -0.64166831743E+02  0.74192304136E+02  0.47000000000E+01 0.  1.
          5    1    3    3  503    0  0.77854583455E+02 -0.68260128750E+01 -0.31178771842E+02  0.84274174159E+02  0.47000000000E+01 0.  1.
         -5    1    3    3    0  503 -0.38855368750E+02  0.28065666582E+02 -0.58849436600E+02  0.76044510055E+02  0.47000000000E+01 0.  1.
<mgrwt>
<rscale>  0 0.12359486E+03</rscale>
<asrwt>0</asrwt>
<pdfrwt beam="1">  1        2 0.10152101E-01 0.13265369E+03</pdfrwt>
<pdfrwt beam="2">  1       -2 0.31718408E-01 0.13265369E+03</pdfrwt>
<totfact> 0.55003152E+03</totfact>
</mgrwt>
</event>
<event>
 8    1  0.3551276E-004  0.1780606E+03  0.7546771E-02  0.1175204E+00
          1   -1    0    0  501    0  0.00000000000E+00  0.00000000000E+00  0.52596879954E+03  0.52596879954E+03  0.00000000000E+00 0. -1.
         -1   -1    0    0    0  501 -0.00000000000E+00 -0.00000000000E+00 -0.56962362810E+02  0.56962362810E+02  0.00000000000E+00 0.  1.
         25    2    1    2    0    0  0.57136711195E+02  0.11321419339E+03  0.17531187508E+03  0.24987962347E+03  0.12499406118E+03 0.  0.
         23    2    1    2    0    0 -0.57136711195E+02 -0.11321419339E+03  0.29369456165E+03  0.33305153888E+03  0.92654059037E+02 0.  0.
          5    1    3    3  502    0 -0.22964158872E+02  0.37512347046E+02  0.18005528994E+01  0.44270314707E+02  0.47000000000E+01 0. -1.
         -5    1    4    4    0  503 -0.37556004848E+02 -0.10341628144E+02  0.30330234098E+02  0.49592498156E+02  0.47000000000E+01 0.  1.
          5    1    4    4  503    0 -0.19580706346E+02 -0.10287256524E+03  0.26336432755E+03  0.28345904072E+03  0.47000000000E+01 0. -1.
         -5    1    3    3    0  502  0.80100870067E+02  0.75701846343E+02  0.17351132218E+03  0.20560930876E+03  0.47000000000E+01 0. -1.
<mgrwt>
<rscale>  0 0.17255996E+03</rscale>
<asrwt>0</asrwt>
<pdfrwt beam="1">  1        1 0.80918274E-01 0.17806059E+03</pdfrwt>
<pdfrwt beam="2">  1       -1 0.87634408E-02 0.17806059E+03</pdfrwt>
<totfact> 0.31038865E+03</totfact>
</mgrwt>
</event>
<event>
 8    1  0.3551276E-004  0.1693010E+03  0.7546771E-02  0.1184784E+00
         -1   -1    0    0    0  501 -0.00000000000E+00  0.00000000000E+00  0.25598951351E+02  0.25598951351E+02  0.00000000000E+00 0.  1.
          1   -1    0    0  501    0  0.00000000000E+00 -0.00000000000E+00 -0.10129750469E+04  0.10129750469E+04  0.00000000000E+00 0. -1.
         25    2    1    2    0    0 -0.10379990636E+03  0.47563945650E+02 -0.62167993538E+03  0.64432040214E+03  0.12500435624E+03 0.  0.
         23    2    1    2    0    0  0.10379990636E+03 -0.47563945650E+02 -0.36569616019E+03  0.39425359613E+03  0.93088490138E+02 0.  0.
          5    1    3    3  502    0 -0.30696952007E+02  0.43595332431E+02 -0.71732113853E+02  0.89501072788E+02  0.47000000000E+01 0.  1.
         -5    1    4    4    0  503 -0.43947626117E+01 -0.29963527559E+02 -0.38844707070E+02  0.49478562929E+02  0.47000000000E+01 0.  1.
          5    1    4    4  503    0  0.10819466897E+03 -0.17600418091E+02 -0.32685145312E+03  0.34477503320E+03  0.47000000000E+01 0. -1.
         -5    1    3    3    0  502 -0.73102954349E+02  0.39686132192E+01 -0.54994782153E+03  0.55481932936E+03  0.47000000000E+01 0.  1.
<mgrwt>
<rscale>  0 0.16351504E+03</rscale>
<asrwt>0</asrwt>
<pdfrwt beam="1">  1        1 0.15584229E+00 0.16930103E+03</pdfrwt>
<pdfrwt beam="2">  1       -1 0.39383009E-02 0.16930103E+03</pdfrwt>
<totfact> 0.38857370E+03</totfact>
</mgrwt>
</event>
<event>
 8    1  0.3551276E-004  0.1707506E+03  0.7546771E-02  0.1183689E+00
          1   -1    0    0  501    0  0.00000000000E+00  0.00000000000E+00  0.23246559906E+03  0.23246559906E+03  0.00000000000E+00 0. -1.
         -1   -1    0    0    0  501 -0.00000000000E+00 -0.00000000000E+00 -0.14630809406E+03  0.14630809406E+03  0.00000000000E+00 0.  1.
         25    2    1    2    0    0 -0.39250198995E+02  0.10950346430E+03  0.14129642961E+03  0.22163130941E+03  0.12499667785E+03 0.  0.
         23    2    1    2    0    0  0.39250198995E+02 -0.10950346430E+03 -0.55138924617E+02  0.15714238372E+03  0.90121256855E+02 0.  0.
          5    1    4    4  502    0  0.39434770025E+02 -0.35411429634E+02  0.14713566163E+02  0.55205520239E+02  0.47000000000E+01 0. -1.
         -5    1    3    3    0  503  0.29567261776E+02  0.93011351193E+02  0.98777925376E+02  0.13894064546E+03  0.47000000000E+01 0. -1.
          5    1    3    3  503    0 -0.68817460770E+02  0.16492113106E+02  0.42518504239E+02  0.82690663949E+02  0.47000000000E+01 0. -1.
         -5    1    4    4    0  502 -0.18457102988E+00 -0.74092034666E+02 -0.69852490779E+02  0.10193686348E+03  0.47000000000E+01 0.  1.
<mgrwt>
<rscale>  0 0.16451763E+03</rscale>
<asrwt>0</asrwt>
<pdfrwt beam="1">  1        1 0.35763938E-01 0.17075057E+03</pdfrwt>
<pdfrwt beam="2">  1       -1 0.22508938E-01 0.17075057E+03</pdfrwt>
<totfact> 0.19784987E+03</totfact>
</mgrwt>
</event>
<event>
 8    1  0.3551276E-004  0.1729346E+03  0.7546771E-02  0.1181024E+00
          1   -1    0    0  501    0  0.00000000000E+00  0.00000000000E+00  0.46780940803E+02  0.46780940803E+02  0.00000000000E+00 0. -1.
         -1   -1    0    0    0  501 -0.00000000000E+00 -0.00000000000E+00 -0.60080843357E+03  0.60080843357E+03  0.00000000000E+00 0.  1.
         25    2    1    2    0    0 -0.65456273116E+02  0.99986865033E+02 -0.20930841563E+03  0.27150760392E+03  0.12499787703E+03 0.  0.
         23    2    1    2    0    0  0.65456273116E+02 -0.99986865033E+02 -0.34471907713E+03  0.37608177045E+03  0.91237925539E+02 0.  0.
          5    1    4    4  502    0  0.44504804284E+02 -0.81693005527E+02 -0.13232223691E+03  0.16181992812E+03  0.47000000000E+01 0. -1.
         -5    1    4    4    0  502  0.20951468831E+02 -0.18293859506E+02 -0.21239684022E+03  0.21426184233E+03  0.47000000000E+01 0.  1.
          5    1    3    3  503    0  0.16636744529E+02  0.83354696397E+02 -0.76669765639E+02  0.11456495818E+03  0.47000000000E+01 0. -1.
         -5    1    3    3    0  503 -0.82093017644E+02  0.16632168636E+02 -0.13263864999E+03  0.15694264574E+03  0.47000000000E+01 0. -1.
<mgrwt>
<rscale>  0 0.16698980E+03</rscale>
<asrwt>0</asrwt>
<pdfrwt beam="1">  1        1 0.71970675E-02 0.17293457E+03</pdfrwt>
<pdfrwt beam="2">  1       -1 0.92432070E-01 0.17293457E+03</pdfrwt>
<totfact> 0.11912834E+03</totfact>
</mgrwt>
</event>
<event>
 8    1  0.3551276E-004  0.1345019E+03  0.7546771E-02  0.1232325E+00
         -1   -1    0    0    0  501 -0.00000000000E+00  0.00000000000E+00  0.15691743370E+02  0.15691743370E+02  0.00000000000E+00 0.  1.
          1   -1    0    0  501    0  0.00000000000E+00 -0.00000000000E+00 -0.11165603572E+04  0.11165603572E+04  0.00000000000E+00 0. -1.
         25    2    1    2    0    0 -0.48295734051E+02 -0.11509636009E+02 -0.83858477837E+03  0.84930277554E+03  0.12500329750E+03 0.  0.
         23    2    1    2    0    0  0.48295734051E+02  0.11509636009E+02 -0.26228383551E+03  0.28294932508E+03  0.93821961942E+02 0.  0.
          5    1    3    3  502    0 -0.99419855807E+01 -0.59710611120E+02 -0.24087975270E+03  0.24841365787E+03  0.47000000000E+01 0.  1.
         -5    1    4    4    0  503  0.19816160394E+02 -0.31824434948E+02 -0.41560711019E+02  0.56168118831E+02  0.47000000000E+01 0.  1.
          5    1    4    4  503    0  0.28479573657E+02  0.43334070957E+02 -0.22072312449E+03  0.22678120625E+03  0.47000000000E+01 0. -1.
         -5    1    3    3    0  502 -0.38353748471E+02  0.48200975111E+02 -0.59770502567E+03  0.60088911767E+03  0.47000000000E+01 0.  1.
<mgrwt>
<rscale>  0 0.12677246E+03</rscale>
<asrwt>0</asrwt>
<pdfrwt beam="1">  1        1 0.17177856E+00 0.13450195E+03</pdfrwt>
<pdfrwt beam="2">  1       -1 0.24141138E-02 0.13450195E+03</pdfrwt>
<totfact> 0.66406647E+03</totfact>
</mgrwt>
</event>
<event>
 8    1  0.3551276E-004  0.1263184E+03  0.7546771E-02  0.1244118E+00
          1   -1    0    0  501    0  0.00000000000E+00  0.00000000000E+00  0.25245861031E+03  0.25245861031E+03  0.00000000000E+00 0. -1.
         -1   -1    0    0    0  501 -0.00000000000E+00 -0.00000000000E+00 -0.75654446879E+02  0.75654446879E+02  0.00000000000E+00 0.  1.
         25    2    1    2    0    0 -0.43812538347E+01  0.17693120895E+02  0.19957451045E+01  0.12633412151E+03  0.12499634133E+03 0.  0.
         23    2    1    2    0    0  0.43812538347E+01 -0.17693120895E+02  0.17480841832E+03  0.20177893568E+03  0.99118685692E+02 0.  0.
          5    1    3    3  502    0 -0.68411284370E+01  0.65278024996E+02 -0.26133312538E+02  0.70802977409E+02  0.47000000000E+01 0. -1.
         -5    1    4    4    0  503 -0.40423433192E+02  0.16370557745E+02  0.67204057520E+02  0.80252878198E+02  0.47000000000E+01 0.  1.
          5    1    4    4  503    0  0.44804687027E+02 -0.34063678640E+02  0.10760436080E+03  0.12152605748E+03  0.47000000000E+01 0. -1.
         -5    1    3    3    0  502  0.24598746023E+01 -0.47584904101E+02  0.28129057642E+02  0.55531144101E+02  0.47000000000E+01 0. -1.
<mgrwt>
<rscale>  0 0.11938348E+03</rscale>
<asrwt>0</asrwt>
<pdfrwt beam="1">  1        1 0.38839786E-01 0.12631836E+03</pdfrwt>
<pdfrwt beam="2">  1       -1 0.11639146E-01 0.12631836E+03</pdfrwt>
<totfact> 0.49988960E+03</totfact>
</mgrwt>
</event>
<event>
 8    1  0.3551276E-004  0.1539283E+03  0.7546771E-02  0.1204463E+00
          1   -1    0    0  501    0  0.00000000000E+00  0.00000000000E+00  0.49797115314E+03  0.49797115314E+03  0.00000000000E+00 0. -1.
         -1   -1    0    0    0  501 -0.00000000000E+00 -0.00000000000E+00 -0.40128964230E+02  0.40128964230E+02  0.00000000000E+00 0.  1.
         25    2    1    2    0    0  0.71618291163E+02 -0.54218618284E+02  0.27756793705E+03  0.31739230430E+03  0.12500030780E+03 0.  0.
         23    2    1    2    0    0 -0.71618291163E+02  0.54218618284E+02  0.18027425186E+03  0.22070781307E+03  0.90245745999E+02 0.  0.
          5    1    3    3  502    0  0.69238259260E+02 -0.91628070359E+02  0.19064494170E+03  0.22261451799E+03  0.47000000000E+01 0. -1.
         -5    1    4    4    0  503 -0.33847208256E+02 -0.19658333891E+02  0.32181793089E+02  0.50890484421E+02  0.47000000000E+01 0.  1.
          5    1    4    4  503    0 -0.37771082907E+02  0.73876952175E+02  0.14809245877E+03  0.16981732865E+03  0.47000000000E+01 0. -1.
         -5    1    3    3    0  502  0.23800319028E+01  0.37409452076E+02  0.86922995356E+02  0.94777786312E+02  0.47000000000E+01 0. -1.
<mgrwt>
<rscale>  0 0.14679869E+03</rscale>
<asrwt>0</asrwt>
<pdfrwt beam="1">  1        1 0.76610942E-01 0.15392828E+03</pdfrwt>
<pdfrwt beam="2">  1       -1 0.61736872E-02 0.15392828E+03</pdfrwt>
<totfact> 0.56274720E+03</totfact>
</mgrwt>
</event>
<event>
 8    1  0.3551276E-004  0.1671899E+03  0.7546771E-02  0.1186914E+00
         -2   -1    0    0    0  501 -0.00000000000E+00  0.00000000000E+00  0.21769766799E+03  0.21769766799E+03  0.00000000000E+00 0.  1.
          2   -1    0    0  501    0  0.00000000000E+00 -0.00000000000E+00 -0.12511842188E+03  0.12511842188E+03  0.00000000000E+00 0. -1.
         25    2    1    2    0    0  0.99735687977E+02  0.48772921457E+02  0.10330877675E+03  0.19653289544E+03  0.12500588111E+03 0.  0.
         23    2    1    2    0    0 -0.99735687977E+02 -0.48772921457E+02 -0.10729530641E+02  0.14628319443E+03  0.94644835157E+02 0.  0.
          5    1    4    4  502    0 -0.23475189461E+02 -0.11899518613E+02 -0.46956917728E+02  0.54034481454E+02  0.47000000000E+01 0. -1.
         -5    1    4    4    0  502 -0.76260498516E+02 -0.36873402844E+02  0.36227387087E+02  0.92248712979E+02  0.47000000000E+01 0.  1.
          5    1    3    3  503    0  0.48290455404E+02  0.18122079845E+02 -0.22998902935E+02  0.56669369127E+02  0.47000000000E+01 0. -1.
         -5    1    3    3    0  503  0.51445232573E+02  0.30650841612E+02  0.12630767968E+03  0.13986352631E+03  0.47000000000E+01 0. -1.
<mgrwt>
<rscale>  0 0.16158959E+03</rscale>
<asrwt>0</asrwt>
<pdfrwt beam="1">  1        2 0.19248988E-01 0.16718994E+03</pdfrwt>
<pdfrwt beam="2">  1       -2 0.33491949E-01 0.16718994E+03</pdfrwt>
<totfact> 0.23666546E+03</totfact>
</mgrwt>
</event>
<event>
 8    1  0.3551276E-004  0.1841478E+03  0.7546771E-02  0.1169136E+00
          2   -1    0    0  501    0  0.00000000000E+00  0.00000000000E+00  0.59337686225E+03  0.59337686225E+03  0.00000000000E+00 0. -1.
         -2   -1    0    0    0  501 -0.00000000000E+00 -0.00000000000E+00 -0.50804798674E+02  0.50804798674E+02  0.00000000000E+00 0.  1.
         25    2    1    2    0    0  0.16860413298E+02 -0.13416496033E+03  0.29377682991E+03  0.34672071307E+03  0.12500366778E+03 0.  0.
         23    2    1    2    0    0 -0.16860413298E+02  0.13416496033E+03  0.24879523367E+03  0.29746094786E+03  0.91101246361E+02 0.  0.
          5    1    4    4  502    0  0.27895411130E+02  0.99743514417E+02  0.18553964942E+03  0.21254169976E+03  0.47000000000E+01 0. -1.
         -5    1    4    4    0  502 -0.44755824428E+02  0.34421445918E+02  0.63255584245E+02  0.84919248098E+02  0.47000000000E+01 0.  1.
          5    1    3    3  503    0  0.23578167010E+02 -0.11228607844E+02  0.17005785458E+03  0.17211558761E+03  0.47000000000E+01 0.  1.
         -5    1    3    3    0  503 -0.67177537121E+01 -0.12293635249E+03  0.12371897533E+03  0.17460512545E+03  0.47000000000E+01 0.  1.
<mgrwt>
<rscale>  0 0.17862918E+03</rscale>
<asrwt>0</asrwt>
<pdfrwt beam="1">  1        2 0.91288743E-01 0.18414784E+03</pdfrwt>
<pdfrwt beam="2">  1       -2 0.78161233E-02 0.18414784E+03</pdfrwt>
<totfact> 0.49163007E+03</totfact>
</mgrwt>
</event>
<event>
 8    1  0.3551276E-004  0.1825825E+03  0.7546771E-02  0.1169121E+00
          1   -1    0    0  501    0  0.00000000000E+00  0.00000000000E+00  0.35847924838E+02  0.35847924838E+02  0.00000000000E+00 0. -1.
         -1   -1    0    0    0  501 -0.00000000000E+00 -0.00000000000E+00 -0.10142970615E+04  0.10142970615E+04  0.00000000000E+00 0.  1.
         25    2    1    2    0    0 -0.11768674890E+03  0.62126705656E+02 -0.29853350408E+03  0.34994087221E+03  0.12500585012E+03 0.  0.
         23    2    1    2    0    0  0.11768674890E+03 -0.62126705656E+02 -0.67991563257E+03  0.70020411411E+03  0.10144277000E+03 0.  0.
          5    1    4    4  502    0  0.10424402260E+03 -0.24313355260E+02 -0.30808745166E+03  0.32618694542E+03  0.47000000000E+01 0. -1.
         -5    1    3    3    0  503 -0.81343045537E+02  0.29313392983E+02 -0.57510677974E+02  0.10394967122E+03  0.47000000000E+01 0. -1.
          5    1    3    3  503    0 -0.36343703360E+02  0.32813312674E+02 -0.24102282610E+03  0.24599120099E+03  0.47000000000E+01 0. -1.
         -5    1    4    4    0  502  0.13442726297E+02 -0.37813350396E+02 -0.37182818090E+03  0.37401716869E+03  0.47000000000E+01 0.  1.
<mgrwt>
<rscale>  0 0.17864469E+03</rscale>
<asrwt>0</asrwt>
<pdfrwt beam="1">  1        1 0.55150659E-02 0.18258248E+03</pdfrwt>
<pdfrwt beam="2">  1       -1 0.15604569E+00 0.18258248E+03</pdfrwt>
<totfact> 0.49343669E+02</totfact>
</mgrwt>
</event>
<event>
 8    1  0.3551276E-004  0.1676852E+03  0.7546771E-02  0.1187369E+00
         -1   -1    0    0    0  501 -0.00000000000E+00  0.00000000000E+00  0.51822115031E+02  0.51822115031E+02  0.00000000000E+00 0.  1.
          1   -1    0    0  501    0  0.00000000000E+00 -0.00000000000E+00 -0.56769900019E+03  0.56769900019E+03  0.00000000000E+00 0. -1.
         25    2    1    2    0    0  0.85726311616E+01  0.11143879250E+03 -0.14394674912E+03  0.22099545051E+03  0.12500491223E+03 0.  0.
         23    2    1    2    0    0 -0.85726311616E+01 -0.11143879250E+03 -0.37193013604E+03  0.39852566472E+03  0.89434807916E+02 0.  0.
          5    1    4    4  502    0 -0.24530853117E+02 -0.59777081447E+02 -0.86996949083E+02  0.10846944902E+03  0.47000000000E+01 0. -1.
         -5    1    3    3    0  503 -0.28111507179E+02  0.59892634071E+02 -0.29624123246E+01  0.66394655950E+02  0.47000000000E+01 0. -1.
          5    1    3    3  503    0  0.36684138341E+02  0.51546158429E+02 -0.14098433680E+03  0.15460079456E+03  0.47000000000E+01 0. -1.
         -5    1    4    4    0  502  0.15958221955E+02 -0.51661711054E+02 -0.28493318695E+03  0.29005621570E+03  0.47000000000E+01 0.  1.
<mgrwt>
<rscale>  0 0.16118164E+03</rscale>
<asrwt>0</asrwt>
<pdfrwt beam="1">  1        1 0.87338312E-01 0.16768519E+03</pdfrwt>
<pdfrwt beam="2">  1       -1 0.79726327E-02 0.16768519E+03</pdfrwt>
<totfact> 0.32286322E+03</totfact>
</mgrwt>
</event>
<event>
 8    1  0.3551276E-004  0.1689178E+03  0.7546771E-02  0.1185362E+00
          2   -1    0    0  501    0  0.00000000000E+00  0.00000000000E+00  0.19965710711E+03  0.19965710711E+03  0.00000000000E+00 0. -1.
         -2   -1    0    0    0  501 -0.00000000000E+00 -0.00000000000E+00 -0.14231828587E+03  0.14231828587E+03  0.00000000000E+00 0.  1.
         25    2    1    2    0    0 -0.11336287721E+03 -0.73894830475E+01 -0.29882296214E+02  0.17154063835E+03  0.12500996996E+03 0.  0.
         23    2    1    2    0    0  0.11336287721E+03  0.73894830475E+01  0.87221117454E+02  0.17043475462E+03  0.92383634174E+02 0.  0.
          5    1    4    4  502    0  0.84615871465E+02  0.94246040932E+01  0.10575572452E+03  0.13584929935E+03  0.47000000000E+01 0. -1.
         -5    1    3    3    0  503 -0.14673638617E+00 -0.44265753536E+02  0.10472059026E+02  0.45729995494E+02  0.47000000000E+01 0.  1.
          5    1    3    3  503    0 -0.11321614083E+03  0.36876270488E+02 -0.40354355240E+02  0.12581064286E+03  0.47000000000E+01 0.  1.
         -5    1    4    4    0  502  0.28747005750E+02 -0.20351210457E+01 -0.18534607064E+02  0.34585455270E+02  0.47000000000E+01 0.  1.
<mgrwt>
<rscale>  0 0.16299000E+03</rscale>
<asrwt>0</asrwt>
<pdfrwt beam="1">  1        2 0.30716478E-01 0.16891785E+03</pdfrwt>
<pdfrwt beam="2">  1       -2 0.21895121E-01 0.16891785E+03</pdfrwt>
<totfact> 0.29953413E+03</totfact>
</mgrwt>
</event>
<event>
 8    1  0.3551276E-004  0.1797345E+03  0.7546771E-02  0.1173586E+00
          1   -1    0    0  501    0  0.00000000000E+00  0.00000000000E+00  0.41551513242E+03  0.41551513242E+03  0.00000000000E+00 0. -1.
         -1   -1    0    0    0  501 -0.00000000000E+00 -0.00000000000E+00 -0.75471757567E+02  0.75471757567E+02  0.00000000000E+00 0.  1.
         25    2    1    2    0    0  0.51596304956E+02 -0.11839400956E+03  0.25264664899E+03  0.31005612919E+03  0.12500061525E+03 0.  0.
         23    2    1    2    0    0 -0.51596304956E+02  0.11839400956E+03  0.87396725857E+02  0.18093076080E+03  0.91752015380E+02 0.  0.
          5    1    3    3  502    0  0.78577216661E+02 -0.12053571896E+03  0.16895340614E+03  0.22196977715E+03  0.47000000000E+01 0. -1.
         -5    1    3    3    0  502 -0.26980911705E+02  0.21417093948E+01  0.83693242853E+02  0.88086352035E+02  0.47000000000E+01 0. -1.
          5    1    4    4  503    0 -0.64383318069E+02  0.59829459593E+02  0.82445482486E+02  0.12059901933E+03  0.47000000000E+01 0. -1.
         -5    1    4    4    0  503  0.12787013112E+02  0.58564549970E+02  0.49512433702E+01  0.60331741467E+02  0.47000000000E+01 0.  1.
<mgrwt>
<rscale>  0 0.17415176E+03</rscale>
<asrwt>0</asrwt>
<pdfrwt beam="1">  1        1 0.63925404E-01 0.17973445E+03</pdfrwt>
<pdfrwt beam="2">  1       -1 0.11611040E-01 0.17973445E+03</pdfrwt>
<totfact> 0.27378599E+03</totfact>
</mgrwt>
</event>
<event>
 8    1  0.3551276E-004  0.1465731E+03  0.7546771E-02  0.1214161E+00
          1   -1    0    0  501    0  0.00000000000E+00  0.00000000000E+00  0.62047842548E+02  0.62047842548E+02  0.00000000000E+00 0. -1.
         -1   -1    0    0    0  501 -0.00000000000E+00 -0.00000000000E+00 -0.31144048519E+03  0.31144048519E+03  0.00000000000E+00 0.  1.
         25    2    1    2    0    0 -0.67267614526E+02  0.36522143874E+02 -0.83073984513E+02  0.16847833590E+03  0.12499945524E+03 0.  0.
         23    2    1    2    0    0  0.67267614526E+02 -0.36522143874E+02 -0.16631865813E+03  0.20500999183E+03  0.92240998217E+02 0.  0.
          5    1    3    3  502    0 -0.10331119747E+03  0.35324489021E+02 -0.53895820287E+02  0.12185184648E+03  0.47000000000E+01 0. -1.
         -5    1    4    4    0  503  0.41943060154E+02 -0.67129112620E+02 -0.11969132913E+03  0.14357451837E+03  0.47000000000E+01 0.  1.
          5    1    4    4  503    0  0.25324554371E+02  0.30606968746E+02 -0.46627329000E+02  0.61435473463E+02  0.47000000000E+01 0. -1.
         -5    1    3    3    0  502  0.36043582941E+02  0.11976548526E+01 -0.29178164225E+02  0.46626489423E+02  0.47000000000E+01 0. -1.
<mgrwt>
<rscale>  0 0.13938375E+03</rscale>
<asrwt>0</asrwt>
<pdfrwt beam="1">  1        1 0.95458220E-02 0.14657306E+03</pdfrwt>
<pdfrwt beam="2">  1       -1 0.47913920E-01 0.14657306E+03</pdfrwt>
<totfact> 0.29426568E+03</totfact>
</mgrwt>
</event>
<event>
 8    1  0.3551276E-004  0.1834736E+03  0.7546771E-02  0.1170499E+00
         -2   -1    0    0    0  501 -0.00000000000E+00  0.00000000000E+00  0.27234674168E+03  0.27234674168E+03  0.00000000000E+00 0.  1.
          2   -1    0    0  501    0  0.00000000000E+00 -0.00000000000E+00 -0.11724764545E+03  0.11724764545E+03  0.00000000000E+00 0. -1.
         25    2    1    2    0    0 -0.84555348179E+02 -0.10435412643E+03  0.28376898903E+02  0.18565510572E+03  0.12499271691E+03 0.  0.
         23    2    1    2    0    0  0.84555348179E+02  0.10435412643E+03  0.12672219733E+03  0.20393928141E+03  0.86563991348E+02 0.  0.
          5    1    3    3  502    0  0.18991598525E+02 -0.55580500505E+02 -0.18676874262E+02  0.61812526911E+02  0.47000000000E+01 0. -1.
         -5    1    4    4    0  503  0.65204021913E+02  0.13729222864E+02  0.58142336961E+02  0.88558892164E+02  0.47000000000E+01 0.  1.
          5    1    4    4  503    0  0.19351326266E+02  0.90624903569E+02  0.68579860368E+02  0.11538038925E+03  0.47000000000E+01 0. -1.
         -5    1    3    3    0  502 -0.10354694670E+03 -0.48773625928E+02  0.47053773165E+02  0.12384257881E+03  0.47000000000E+01 0. -1.
<mgrwt>
<rscale>  0 0.17724229E+03</rscale>
<asrwt>0</asrwt>
<pdfrwt beam="1">  1        2 0.18038099E-01 0.18347362E+03</pdfrwt>
<pdfrwt beam="2">  1       -2 0.41899498E-01 0.18347362E+03</pdfrwt>
<totfact> 0.16802359E+03</totfact>
</mgrwt>
</event>
<event>
 8    1  0.3551276E-004  0.1305542E+03  0.7546771E-02  0.1240444E+00
          1   -1    0    0  501    0  0.00000000000E+00  0.00000000000E+00  0.24138858164E+02  0.24138858164E+02  0.00000000000E+00 0. -1.
         -1   -1    0    0    0  501 -0.00000000000E+00 -0.00000000000E+00 -0.57963122572E+03  0.57963122572E+03  0.00000000000E+00 0.  1.
         25    2    1    2    0    0  0.32403892660E+02 -0.19168115410E+02 -0.23872283875E+03  0.27209002221E+03  0.12500782990E+03 0.  0.
         23    2    1    2    0    0 -0.32403892660E+02  0.19168115410E+02 -0.31676952881E+03  0.33168006168E+03  0.90836666737E+02 0.  0.
          5    1    4    4  502    0  0.47979470954E+01 -0.28588460888E+02 -0.49116398437E+02  0.57226139025E+02  0.47000000000E+01 0. -1.
         -5    1    3    3    0  503 -0.19380865643E+02  0.36780381080E+02 -0.35097888467E+02  0.54611044307E+02  0.47000000000E+01 0. -1.
          5    1    3    3  503    0  0.51784758303E+02 -0.55948496490E+02 -0.20362495028E+03  0.21747897790E+03  0.47000000000E+01 0. -1.
         -5    1    4    4    0  502 -0.37201839756E+02  0.47756576298E+02 -0.26765313037E+03  0.27445392265E+03  0.47000000000E+01 0.  1.
<mgrwt>
<rscale>  0 0.12162257E+03</rscale>
<asrwt>0</asrwt>
<pdfrwt beam="1">  1        1 0.37136707E-02 0.13055415E+03</pdfrwt>
<pdfrwt beam="2">  1       -1 0.89174029E-01 0.13055415E+03</pdfrwt>
<totfact> 0.31418234E+03</totfact>
</mgrwt>
</event>
<event>
 8    1  0.3551276E-004  0.1723432E+03  0.7546771E-02  0.1181791E+00
          4   -1    0    0  501    0  0.00000000000E+00  0.00000000000E+00  0.19259213488E+03  0.19259213488E+03  0.00000000000E+00 0.  1.
         -4   -1    0    0    0  501 -0.00000000000E+00 -0.00000000000E+00 -0.15211606978E+03  0.15211606978E+03  0.00000000000E+00 0. -1.
         25    2    1    2    0    0 -0.11851569232E+03  0.56376727565E+01 -0.37326534873E+02  0.17633905796E+03  0.12499776188E+03 0.  0.
         23    2    1    2    0    0  0.11851569232E+03 -0.56376727565E+01  0.77802599970E+02  0.16836914670E+03  0.90648620054E+02 0.  0.
          5    1    4    4  502    0  0.10008913513E+03 -0.24486096683E+02  0.20564039615E+02  0.10517781908E+03  0.47000000000E+01 0. -1.
         -5    1    4    4    0  502  0.18426557191E+02  0.18848423926E+02  0.57238560355E+02  0.63191327616E+02  0.47000000000E+01 0.  1.
          5    1    3    3  503    0 -0.19654186217E+02 -0.52471765546E+02 -0.22707517904E+02  0.60640700728E+02  0.47000000000E+01 0. -1.
         -5    1    3    3    0  503 -0.98861506104E+02  0.58109438303E+02 -0.14619016969E+02  0.11569835723E+03  0.47000000000E+01 0. -1.
<mgrwt>
<rscale>  0 0.16627289E+03</rscale>
<asrwt>0</asrwt>
<pdfrwt beam="1">  1        4 0.29629559E-01 0.17234324E+03</pdfrwt>
<pdfrwt beam="2">  1       -4 0.23402472E-01 0.17234324E+03</pdfrwt>
<totfact> 0.31992304E+02</totfact>
</mgrwt>
</event>
<event>
 8    1  0.3551276E-004  0.1692979E+03  0.7546771E-02  0.1184297E+00
         -1   -1    0    0    0  501 -0.00000000000E+00  0.00000000000E+00  0.68750882039E+02  0.68750882039E+02  0.00000000000E+00 0.  1.
          1   -1    0    0  501    0  0.00000000000E+00 -0.00000000000E+00 -0.36907445419E+03  0.36907445419E+03  0.00000000000E+00 0. -1.
         25    2    1    2    0    0  0.27018024057E+02  0.11095290230E+03 -0.17003682981E+03  0.23994646909E+03  0.12498505663E+03 0.  0.
         23    2    1    2    0    0 -0.27018024057E+02 -0.11095290230E+03 -0.13028674234E+03  0.19787886714E+03  0.95608005308E+02 0.  0.
          5    1    3    3  502    0 -0.14620410256E+02  0.23505489863E+02  0.14412849274E+02  0.31560809146E+02  0.47000000000E+01 0. -1.
         -5    1    3    3    0  502  0.41638434313E+02  0.87447412438E+02 -0.18444967909E+03  0.20838565994E+03  0.47000000000E+01 0. -1.
          5    1    4    4  503    0  0.34316553379E+02 -0.50005741029E+02 -0.67829237724E+02  0.91110347721E+02  0.47000000000E+01 0. -1.
         -5    1    4    4    0  503 -0.61334577436E+02 -0.60947161273E+02 -0.62457504611E+02  0.10676851942E+03  0.47000000000E+01 0.  1.
<mgrwt>
<rscale>  0 0.16395979E+03</rscale>
<asrwt>0</asrwt>
<pdfrwt beam="1">  1        1 0.56780686E-01 0.16929792E+03</pdfrwt>
<pdfrwt beam="2">  1       -1 0.10577059E-01 0.16929792E+03</pdfrwt>
<totfact> 0.36669810E+03</totfact>
</mgrwt>
</event>
<event>
 8    1  0.3551276E-004  0.2088614E+03  0.7546771E-02  0.1146271E+00
          2   -1    0    0  501    0  0.00000000000E+00  0.00000000000E+00  0.47834615770E+02  0.47834615770E+02  0.00000000000E+00 0.  1.
         -2   -1    0    0    0  501 -0.00000000000E+00 -0.00000000000E+00 -0.92065142245E+03  0.92065142245E+03  0.00000000000E+00 0. -1.
         25    2    1    2    0    0  0.14087053593E+03 -0.90292390224E+02 -0.60246046983E+03  0.63763760813E+03  0.12500351185E+03 0.  0.
         23    2    1    2    0    0 -0.14087053593E+03  0.90292390224E+02 -0.27035633685E+03  0.33084843009E+03  0.91492683811E+02 0.  0.
          5    1    4    4  502    0 -0.10822837451E+03  0.91377617684E+02 -0.26025364747E+03  0.29633984052E+03  0.47000000000E+01 0. -1.
         -5    1    3    3    0  503  0.14910021392E+03 -0.36878071844E+02 -0.47064412642E+03  0.49509478861E+03  0.47000000000E+01 0.  1.
          5    1    3    3  503    0 -0.82296779971E+01 -0.53414318380E+02 -0.13181634341E+03  0.14254281952E+03  0.47000000000E+01 0.  1.
         -5    1    4    4    0  502 -0.32642161420E+02 -0.10852274592E+01 -0.10102689383E+02  0.34508589563E+02  0.47000000000E+01 0.  1.
<mgrwt>
<rscale>  0 0.20416619E+03</rscale>
<asrwt>0</asrwt>
<pdfrwt beam="1">  1        2 0.73591714E-02 0.20886144E+03</pdfrwt>
<pdfrwt beam="2">  1       -2 0.14163868E+00 0.20886144E+03</pdfrwt>
<totfact> 0.34663433E+02</totfact>
</mgrwt>
</event>
<event>
 8    1  0.3551276E-004  0.1286019E+03  0.7546771E-02  0.1244944E+00
          1   -1    0    0  501    0  0.00000000000E+00  0.00000000000E+00  0.64216128087E+03  0.64216128087E+03  0.00000000000E+00 0. -1.
         -1   -1    0    0    0  501 -0.00000000000E+00 -0.00000000000E+00 -0.21170386631E+02  0.21170386631E+02  0.00000000000E+00 0.  1.
         25    2    1    2    0    0  0.17383415457E+02 -0.24620353636E+02  0.45259042460E+03  0.47050669614E+03  0.12502045326E+03 0.  0.
         23    2    1    2    0    0 -0.17383415457E+02  0.24620353636E+02  0.16840046965E+03  0.19282497136E+03  0.88962949911E+02 0.  0.
          5    1    4    4  502    0 -0.15716794811E+02  0.56886125670E+02  0.12681639181E+03  0.13995547923E+03  0.47000000000E+01 0. -1.
         -5    1    4    4    0  502 -0.16666206467E+01 -0.32265772034E+02  0.41584077833E+02  0.52869492135E+02  0.47000000000E+01 0.  1.
          5    1    3    3  503    0  0.12199736050E+01 -0.73806864467E+02  0.21737599003E+03  0.22961566283E+03  0.47000000000E+01 0.  1.
         -5    1    3    3    0  503  0.16163441852E+02  0.49186510831E+02  0.23521443457E+03  0.24089103331E+03  0.47000000000E+01 0.  1.
<mgrwt>
<rscale>  0 0.11888749E+03</rscale>
<asrwt>0</asrwt>
<pdfrwt beam="1">  1        1 0.98794028E-01 0.12860194E+03</pdfrwt>
<pdfrwt beam="2">  1       -1 0.32569831E-02 0.12860194E+03</pdfrwt>
<totfact> 0.10163139E+04</totfact>
</mgrwt>
</event>
<event>
 8    1  0.3551276E-004  0.1595325E+03  0.7546771E-02  0.1196867E+00
          1   -1    0    0  501    0  0.00000000000E+00  0.00000000000E+00  0.13819900396E+04  0.13819900396E+04  0.00000000000E+00 0. -1.
         -1   -1    0    0    0  501 -0.00000000000E+00 -0.00000000000E+00 -0.17521294924E+02  0.17521294924E+02  0.00000000000E+00 0.  1.
         25    2    1    2    0    0  0.84106675869E+02  0.52472990585E+02  0.95959588807E+03  0.97276661791E+03  0.12499310719E+03 0.  0.
         23    2    1    2    0    0 -0.84106675869E+02 -0.52472990585E+02  0.40487285659E+03  0.42674471661E+03  0.91442197473E+02 0.  0.
          5    1    4    4  502    0 -0.39740902306E+02 -0.69316686195E+02  0.18191994057E+03  0.19874882913E+03  0.47000000000E+01 0. -1.
         -5    1    3    3    0  503  0.11357352971E+03  0.21774996156E+02  0.74575370189E+03  0.75468123800E+03  0.47000000000E+01 0.  1.
          5    1    3    3  503    0 -0.29466853846E+02  0.30697994429E+02  0.21384218619E+03  0.21808537991E+03  0.47000000000E+01 0.  1.
         -5    1    4    4    0  502 -0.44365773563E+02  0.16843695610E+02  0.22295291602E+03  0.22799588748E+03  0.47000000000E+01 0.  1.
<mgrwt>
<rscale>  0 0.15297240E+03</rscale>
<asrwt>0</asrwt>
<pdfrwt beam="1">  1        1 0.21261377E+00 0.15953252E+03</pdfrwt>
<pdfrwt beam="2">  1       -1 0.26955849E-02 0.15953252E+03</pdfrwt>
<totfact> 0.37570676E+03</totfact>
</mgrwt>
</event>
<event>
 8    1  0.3551276E-004  0.1683606E+03  0.7546771E-02  0.1186110E+00
         -2   -1    0    0    0  501 -0.00000000000E+00  0.00000000000E+00  0.60053440955E+02  0.60053440955E+02  0.00000000000E+00 0.  1.
          2   -1    0    0  501    0  0.00000000000E+00 -0.00000000000E+00 -0.41116659112E+03  0.41116659112E+03  0.00000000000E+00 0. -1.
         25    2    1    2    0    0 -0.90544551683E+02  0.67247398983E+02 -0.20120506056E+03  0.26235240403E+03  0.12499911597E+03 0.  0.
         23    2    1    2    0    0  0.90544551683E+02 -0.67247398983E+02 -0.14990808960E+03  0.20886762805E+03  0.91829854668E+02 0.  0.
          5    1    3    3  502    0  0.19605145104E+02  0.53463175916E+02 -0.72951952068E+02  0.92664719307E+02  0.47000000000E+01 0.  1.
         -5    1    3    3    0  502 -0.11014969679E+03  0.13784223066E+02 -0.12825310850E+03  0.16968768472E+03  0.47000000000E+01 0.  1.
          5    1    4    4  503    0  0.28698369486E+02 -0.43589012779E+02 -0.12905323938E+03  0.13928541575E+03  0.47000000000E+01 0. -1.
         -5    1    4    4    0  503  0.61846182197E+02 -0.23658386203E+02 -0.20854850219E+02  0.69582212294E+02  0.47000000000E+01 0.  1.
<mgrwt>
<rscale>  0 0.16231273E+03</rscale>
<asrwt>0</asrwt>
<pdfrwt beam="1">  1        2 0.63256400E-01 0.16836065E+03</pdfrwt>
<pdfrwt beam="2">  1       -2 0.92389908E-02 0.16836065E+03</pdfrwt>
<totfact> 0.56633444E+03</totfact>
</mgrwt>
</event>
<event>
 8    1  0.3551276E-004  0.1293779E+03  0.7546771E-02  0.1240211E+00
         -1   -1    0    0    0  501 -0.00000000000E+00  0.00000000000E+00  0.17295014670E+02  0.17295014670E+02  0.00000000000E+00 0.  1.
          1   -1    0    0  501    0  0.00000000000E+00 -0.00000000000E+00 -0.78453074700E+03  0.78453074700E+03  0.00000000000E+00 0. -1.
         25    2    1    2    0    0 -0.37247056409E+01 -0.33224451263E+02 -0.48208503982E+03  0.49914388284E+03  0.12498356915E+03 0.  0.
         23    2    1    2    0    0  0.37247056409E+01  0.33224451263E+02 -0.28515069251E+03  0.30268187884E+03  0.95852306927E+02 0.  0.
          5    1    3    3  502    0 -0.60033726408E+02  0.60088476026E+01 -0.21735803912E+03  0.22562526836E+03  0.47000000000E+01 0. -1.
         -5    1    4    4    0  503 -0.10003310071E+01 -0.31052182647E+02 -0.52137772279E+02  0.60874263918E+02  0.47000000000E+01 0.  1.
          5    1    4    4  503    0  0.47250366480E+01  0.64276633911E+02 -0.23301292023E+03  0.24180761492E+03  0.47000000000E+01 0. -1.
         -5    1    3    3    0  502  0.56309020767E+02 -0.39233298866E+02 -0.26472700071E+03  0.27351861447E+03  0.47000000000E+01 0. -1.
<mgrwt>
<rscale>  0 0.12176657E+03</rscale>
<asrwt>0</asrwt>
<pdfrwt beam="1">  1        1 0.12069705E+00 0.12937786E+03</pdfrwt>
<pdfrwt beam="2">  1       -1 0.26607712E-02 0.12937786E+03</pdfrwt>
<totfact> 0.10233472E+04</totfact>
</mgrwt>
</event>
<event>
 8    1  0.3551276E-004  0.1431354E+03  0.7546771E-02  0.1219390E+00
         -2   -1    0    0    0  501 -0.00000000000E+00  0.00000000000E+00  0.24463832676E+02  0.24463832676E+02  0.00000000000E+00 0.  1.
          2   -1    0    0  501    0  0.00000000000E+00 -0.00000000000E+00 -0.91593829547E+03  0.91593829547E+03  0.00000000000E+00 0. -1.
         25    2    1    2    0    0 -0.28385324932E+02  0.63695981956E+02 -0.24511507113E+03  0.28384705565E+03  0.12499939248E+03 0.  0.
         23    2    1    2    0    0  0.28385324932E+02 -0.63695981956E+02 -0.64635939167E+03  0.65655507250E+03  0.91767070523E+02 0.  0.
          5    1    3    3  502    0  0.46421436396E+02  0.34817054033E+02 -0.68999893859E+02  0.90278748115E+02  0.47000000000E+01 0. -1.
         -5    1    4    4    0  503  0.54031538889E+02 -0.69291236503E+02 -0.52249457303E+03  0.52985219779E+03  0.47000000000E+01 0.  1.
          5    1    4    4  503    0 -0.25646213957E+02  0.55952545470E+01 -0.12386481864E+03  0.12670287471E+03  0.47000000000E+01 0. -1.
         -5    1    3    3    0  502 -0.74806761328E+02  0.28878927924E+02 -0.17611517727E+03  0.19356830753E+03  0.47000000000E+01 0. -1.
<mgrwt>
<rscale>  0 0.13558976E+03</rscale>
<asrwt>0</asrwt>
<pdfrwt beam="1">  1        2 0.14091358E+00 0.14313544E+03</pdfrwt>
<pdfrwt beam="2">  1       -2 0.37636665E-02 0.14313544E+03</pdfrwt>
<totfact> 0.86511761E+03</totfact>
</mgrwt>
</event>
<event>
 8    1  0.3551276E-004  0.1446960E+03  0.7546771E-02  0.1216693E+00
          1   -1    0    0  501    0  0.00000000000E+00  0.00000000000E+00  0.68762853104E+02  0.68762853104E+02  0.00000000000E+00 0. -1.
         -1   -1    0    0    0  501 -0.00000000000E+00 -0.00000000000E+00 -0.25132461867E+03  0.25132461867E+03  0.00000000000E+00 0.  1.
         25    2    1    2    0    0 -0.60791160778E+02  0.40222182829E+02 -0.10565120060E+03  0.17916226402E+03  0.12499420562E+03 0.  0.
         23    2    1    2    0    0  0.60791160778E+02 -0.40222182829E+02 -0.76910564966E+02  0.14092520776E+03  0.92904735930E+02 0.  0.
          5    1    3    3  502    0 -0.98360041837E+02  0.20640226243E+02 -0.62160157279E+02  0.11826534540E+03  0.47000000000E+01 0. -1.
         -5    1    3    3    0  502  0.37568881058E+02  0.19581956586E+02 -0.43491043325E+02  0.60896918618E+02  0.47000000000E+01 0. -1.
          5    1    4    4  503    0  0.39997929280E+02 -0.67727161514E+02 -0.34374396222E+02  0.85967970019E+02  0.47000000000E+01 0. -1.
         -5    1    4    4    0  503  0.20793231498E+02  0.27504978686E+02 -0.42536168744E+02  0.54957237740E+02  0.47000000000E+01 0.  1.
<mgrwt>
<rscale>  0 0.13752876E+03</rscale>
<asrwt>0</asrwt>
<pdfrwt beam="1">  1        1 0.10578901E-01 0.14469603E+03</pdfrwt>
<pdfrwt beam="2">  1       -1 0.38665326E-01 0.14469603E+03</pdfrwt>
<totfact> 0.37570360E+03</totfact>
</mgrwt>
</event>
<event>
 8    1  0.3551276E-004  0.1505358E+03  0.7546771E-02  0.1208967E+00
         -2   -1    0    0    0  501 -0.00000000000E+00  0.00000000000E+00  0.12416814366E+03  0.12416814366E+03  0.00000000000E+00 0.  1.
          2   -1    0    0  501    0  0.00000000000E+00 -0.00000000000E+00 -0.16531193846E+03  0.16531193846E+03  0.00000000000E+00 0. -1.
         25    2    1    2    0    0  0.26458012984E+02  0.79619773786E+02  0.19544311423E+02  0.15179923303E+03  0.12498676814E+03 0.  0.
         23    2    1    2    0    0 -0.26458012984E+02 -0.79619773786E+02 -0.60688106217E+02  0.13768084910E+03  0.90739380330E+02 0.  0.
          5    1    4    4  502    0  0.22203575683E+02  0.68054551426E+01 -0.17211070353E+02  0.29285217014E+02  0.47000000000E+01 0. -1.
         -5    1    3    3    0  503  0.74241268695E+02  0.63000432911E+02  0.34355132360E+00  0.97483478353E+02  0.47000000000E+01 0. -1.
          5    1    3    3  503    0 -0.47783255711E+02  0.16619340876E+02  0.19200760099E+02  0.54315754675E+02  0.47000000000E+01 0. -1.
         -5    1    4    4    0  502 -0.48661588667E+02 -0.86425228929E+02 -0.43477035863E+02  0.10839563208E+03  0.47000000000E+01 0.  1.
<mgrwt>
<rscale>  0 0.14329145E+03</rscale>
<asrwt>0</asrwt>
<pdfrwt beam="1">  1        2 0.25432606E-01 0.15053580E+03</pdfrwt>
<pdfrwt beam="2">  1       -2 0.19102791E-01 0.15053580E+03</pdfrwt>
<totfact> 0.46199109E+03</totfact>
</mgrwt>
</event>
<event>
 8    1  0.3551276E-004  0.2219578E+03  0.7546771E-02  0.1135828E+00
          1   -1    0    0  501    0  0.00000000000E+00  0.00000000000E+00  0.38375684221E+03  0.38375684221E+03  0.00000000000E+00 0. -1.
         -1   -1    0    0    0  501 -0.00000000000E+00 -0.00000000000E+00 -0.12378720697E+03  0.12378720697E+03  0.00000000000E+00 0.  1.
         25    2    1    2    0    0  0.10520032975E+03 -0.15024174829E+03  0.18812439236E+03  0.29095710927E+03  0.12500224047E+03 0.  0.
         23    2    1    2    0    0 -0.10520032975E+03  0.15024174829E+03  0.71845242879E+02  0.21658693991E+03  0.90047050506E+02 0.  0.
          5    1    4    4  502    0 -0.98921300592E+02  0.64976989371E+02  0.46999750484E+02  0.12743037081E+03  0.47000000000E+01 0. -1.
         -5    1    3    3    0  503  0.10133029229E+03 -0.69554381992E+02  0.54027166523E+02  0.13433787594E+03  0.47000000000E+01 0.  1.
          5    1    3    3  503    0  0.38700374620E+01 -0.80687366301E+02  0.13409722584E+03  0.15661923333E+03  0.47000000000E+01 0.  1.
         -5    1    4    4    0  502 -0.62790291552E+01  0.85264758923E+02  0.24845492395E+02  0.89156569100E+02  0.47000000000E+01 0.  1.
<mgrwt>
<rscale>  0 0.21741146E+03</rscale>
<asrwt>0</asrwt>
<pdfrwt beam="1">  1        1 0.59039513E-01 0.22195777E+03</pdfrwt>
<pdfrwt beam="2">  1       -1 0.19044186E-01 0.22195777E+03</pdfrwt>
<totfact> 0.13924709E+03</totfact>
</mgrwt>
</event>
<event>
 8    1  0.3551276E-004  0.1443584E+03  0.7546771E-02  0.1218037E+00
          4   -1    0    0  501    0  0.00000000000E+00  0.00000000000E+00  0.27428187183E+02  0.27428187183E+02  0.00000000000E+00 0. -1.
         -4   -1    0    0    0  501 -0.00000000000E+00 -0.00000000000E+00 -0.65210927058E+03  0.65210927058E+03  0.00000000000E+00 0.  1.
         25    2    1    2    0    0  0.66828114198E+02 -0.27308758698E+02 -0.42454117694E+03  0.44841337888E+03  0.12501032875E+03 0.  0.
         23    2    1    2    0    0 -0.66828114198E+02  0.27308758698E+02 -0.20013990647E+03  0.23112407889E+03  0.90280632105E+02 0.  0.
          5    1    4    4  502    0 -0.35045717035E+02 -0.34433363932E+01 -0.11543802108E+02  0.37355163165E+02  0.47000000000E+01 0. -1.
         -5    1    4    4    0  502 -0.31782397163E+02  0.30752095091E+02 -0.18859610436E+03  0.19376891572E+03  0.47000000000E+01 0.  1.
          5    1    3    3  503    0  0.35089927647E+02  0.23285114746E+02 -0.35104566848E+03  0.35359390684E+03  0.47000000000E+01 0.  1.
         -5    1    3    3    0  503  0.31738186551E+02 -0.50593873444E+02 -0.73495508451E+02  0.94819472040E+02  0.47000000000E+01 0.  1.
<mgrwt>
<rscale>  0 0.13655793E+03</rscale>
<asrwt>0</asrwt>
<pdfrwt beam="1">  1        4 0.42197213E-02 0.14435840E+03</pdfrwt>
<pdfrwt beam="2">  1       -4 0.10032450E+00 0.14435840E+03</pdfrwt>
<totfact> 0.44836453E+02</totfact>
</mgrwt>
</event>
<event>
 8    1  0.3551276E-004  0.1605433E+03  0.7546771E-02  0.1194892E+00
         -2   -1    0    0    0  501 -0.00000000000E+00  0.00000000000E+00  0.37521042564E+02  0.37521042564E+02  0.00000000000E+00 0.  1.
          2   -1    0    0  501    0  0.00000000000E+00 -0.00000000000E+00 -0.60249889192E+03  0.60249889192E+03  0.00000000000E+00 0. -1.
         25    2    1    2    0    0  0.84393776492E+02  0.55018699330E+02 -0.33999048863E+03  0.37598893458E+03  0.12499911914E+03 0.  0.
         23    2    1    2    0    0 -0.84393776492E+02 -0.55018699330E+02 -0.22498736073E+03  0.26403099990E+03  0.94571082444E+02 0.  0.
          5    1    3    3  502    0 -0.12321225133E+02 -0.18880369707E+02 -0.13956646735E+03  0.14145377251E+03  0.47000000000E+01 0. -1.
         -5    1    3    3    0  502  0.96715001624E+02  0.73899069037E+02 -0.20042402128E+03  0.23453516207E+03  0.47000000000E+01 0. -1.
          5    1    4    4  503    0 -0.38819064216E+02 -0.27079236454E+02 -0.19862768659E+03  0.20424312149E+03  0.47000000000E+01 0. -1.
         -5    1    4    4    0  503 -0.45574712275E+02 -0.27939462876E+02 -0.26359674138E+02  0.59787878416E+02  0.47000000000E+01 0.  1.
<mgrwt>
<rscale>  0 0.15463348E+03</rscale>
<asrwt>0</asrwt>
<pdfrwt beam="1">  1        2 0.92692137E-01 0.16054329E+03</pdfrwt>
<pdfrwt beam="2">  1       -2 0.57724681E-02 0.16054329E+03</pdfrwt>
<totfact> 0.76434894E+03</totfact>
</mgrwt>
</event>
<event>
 8    1  0.3551276E-004  0.1582336E+03  0.7546771E-02  0.1197983E+00
         -2   -1    0    0    0  501 -0.00000000000E+00  0.00000000000E+00  0.22238808524E+02  0.22238808524E+02  0.00000000000E+00 0.  1.
          2   -1    0    0  501    0  0.00000000000E+00 -0.00000000000E+00 -0.97684445316E+03  0.97684445316E+03  0.00000000000E+00 0. -1.
         25    2    1    2    0    0  0.91449873838E+02 -0.32371325172E+02 -0.46218383100E+03  0.48851996902E+03  0.12500753727E+03 0.  0.
         23    2    1    2    0    0 -0.91449873838E+02  0.32371325172E+02 -0.49242181364E+03  0.51056329267E+03  0.93726469869E+02 0.  0.
          5    1    3    3  502    0  0.72687240189E+02  0.39383129339E+02 -0.27228713363E+03  0.28459943588E+03  0.47000000000E+01 0.  1.
         -5    1    4    4    0  503 -0.52206410544E+02 -0.28658241197E+02 -0.17484544452E+03  0.18476965000E+03  0.47000000000E+01 0.  1.
          5    1    4    4  503    0 -0.39243463293E+02  0.61029566369E+02 -0.31757636912E+03  0.32579364267E+03  0.47000000000E+01 0. -1.
         -5    1    3    3    0  502  0.18762633648E+02 -0.71754454511E+02 -0.18989669737E+03  0.20392053314E+03  0.47000000000E+01 0.  1.
<mgrwt>
<rscale>  0 0.15204421E+03</rscale>
<asrwt>0</asrwt>
<pdfrwt beam="1">  1        2 0.15028374E+00 0.15823358E+03</pdfrwt>
<pdfrwt beam="2">  1       -2 0.34213556E-02 0.15823358E+03</pdfrwt>
<totfact> 0.91871050E+03</totfact>
</mgrwt>
</event>
<event>
 8    1  0.3551276E-004  0.1342214E+03  0.7546771E-02  0.1233400E+00
         -2   -1    0    0    0  501 -0.00000000000E+00  0.00000000000E+00  0.13594543055E+03  0.13594543055E+03  0.00000000000E+00 0.  1.
          2   -1    0    0  501    0  0.00000000000E+00 -0.00000000000E+00 -0.11144299100E+03  0.11144299100E+03  0.00000000000E+00 0. -1.
         25    2    1    2    0    0 -0.38334874922E+02  0.30361974752E+02  0.43704670409E+02  0.14115762190E+03  0.12499585537E+03 0.  0.
         23    2    1    2    0    0  0.38334874922E+02 -0.30361974752E+02 -0.19202230861E+02  0.10623079965E+03  0.92330087074E+02 0.  0.
          5    1    4    4  502    0 -0.13039031776E+02  0.24240066549E+02  0.25158879144E+01  0.28035992366E+02  0.47000000000E+01 0. -1.
         -5    1    4    4    0  502  0.51373906698E+02 -0.54602041301E+02 -0.21718118775E+02  0.78194807288E+02  0.47000000000E+01 0.  1.
          5    1    3    3  503    0  0.25524971784E+02  0.48045898866E+02  0.50502718648E+02  0.74381094192E+02  0.47000000000E+01 0. -1.
         -5    1    3    3    0  503 -0.63859846706E+02 -0.17683924114E+02 -0.67980482386E+01  0.66776527712E+02  0.47000000000E+01 0. -1.
<mgrwt>
<rscale>  0 0.12607398E+03</rscale>
<asrwt>0</asrwt>
<pdfrwt beam="1">  1        2 0.17145076E-01 0.13422137E+03</pdfrwt>
<pdfrwt beam="2">  1       -2 0.20914682E-01 0.13422137E+03</pdfrwt>
<totfact> 0.61348607E+03</totfact>
</mgrwt>
</event>
<event>
 8    1  0.3551276E-004  0.1262455E+03  0.7546771E-02  0.1248432E+00
         -1   -1    0    0    0  501 -0.00000000000E+00  0.00000000000E+00  0.34142677133E+02  0.34142677133E+02  0.00000000000E+00 0.  1.
          1   -1    0    0  501    0  0.00000000000E+00 -0.00000000000E+00 -0.36206988558E+03  0.36206988558E+03  0.00000000000E+00 0. -1.
         25    2    1    2    0    0 -0.86684668700E+01  0.15508853609E+02 -0.15352288774E+03  0.19876419219E+03  0.12498904023E+03 0.  0.
         23    2    1    2    0    0  0.86684668700E+01 -0.15508853609E+02 -0.17440432070E+03  0.19744837052E+03  0.90847812766E+02 0.  0.
          5    1    3    3  502    0 -0.41530088669E+02 -0.24495095269E+02 -0.14851799583E+02  0.50669753384E+02  0.47000000000E+01 0. -1.
         -5    1    4    4    0  503  0.39129895056E+02  0.23697649657E+01 -0.32497672798E+02  0.51136613208E+02  0.47000000000E+01 0.  1.
          5    1    4    4  503    0 -0.30461428186E+02 -0.17878618575E+02 -0.14190664790E+03  0.14631175731E+03  0.47000000000E+01 0. -1.
         -5    1    3    3    0  502  0.32861621799E+02  0.40003948879E+02 -0.13867108816E+03  0.14809443880E+03  0.47000000000E+01 0. -1.
<mgrwt>
<rscale>  0 0.11682295E+03</rscale>
<asrwt>0</asrwt>
<pdfrwt beam="1">  1        1 0.55703058E-01 0.12624550E+03</pdfrwt>
<pdfrwt beam="2">  1       -1 0.52527196E-02 0.12624550E+03</pdfrwt>
<totfact> 0.10600684E+04</totfact>
</mgrwt>
</event>
<event>
 8    1  0.3551276E-004  0.1546180E+03  0.7546771E-02  0.1203995E+00
          1   -1    0    0  501    0  0.00000000000E+00  0.00000000000E+00  0.70351917338E+02  0.70351917338E+02  0.00000000000E+00 0. -1.
         -1   -1    0    0    0  501 -0.00000000000E+00 -0.00000000000E+00 -0.47680519445E+03  0.47680519445E+03  0.00000000000E+00 0.  1.
         25    2    1    2    0    0  0.90565728484E+02  0.86368978767E+01 -0.40515189084E+02  0.15983803975E+03  0.12501988331E+03 0.  0.
         23    2    1    2    0    0 -0.90565728484E+02 -0.86368978767E+01 -0.36593808802E+03  0.38731907204E+03  0.88479557620E+02 0.  0.
          5    1    4    4  502    0 -0.18623139843E+02 -0.17165042654E+02 -0.16894501712E+02  0.30805425090E+02  0.47000000000E+01 0. -1.
         -5    1    4    4    0  502 -0.71942588641E+02  0.85281447776E+01 -0.34904358631E+03  0.35651364695E+03  0.47000000000E+01 0.  1.
          5    1    3    3  503    0 -0.14223219318E+02  0.27261563263E+02 -0.43242555081E+02  0.53268202234E+02  0.47000000000E+01 0.  1.
         -5    1    3    3    0  503  0.10478894780E+03 -0.18624665386E+02  0.27273659967E+01  0.10656983751E+03  0.47000000000E+01 0.  1.
<mgrwt>
<rscale>  0 0.14716901E+03</rscale>
<asrwt>0</asrwt>
<pdfrwt beam="1">  1        1 0.10823372E-01 0.15461798E+03</pdfrwt>
<pdfrwt beam="2">  1       -1 0.73354645E-01 0.15461798E+03</pdfrwt>
<totfact> 0.11100849E+03</totfact>
</mgrwt>
</event>
<event>
 8    1  0.3551276E-004  0.1638473E+03  0.7546771E-02  0.1191065E+00
          2   -1    0    0  501    0  0.00000000000E+00  0.00000000000E+00  0.14762062717E+03  0.14762062717E+03  0.00000000000E+00 0. -1.
         -2   -1    0    0    0  501 -0.00000000000E+00 -0.00000000000E+00 -0.16238213923E+03  0.16238213923E+03  0.00000000000E+00 0.  1.
         25    2    1    2    0    0  0.10453817146E+03 -0.17114955349E+02 -0.33903195665E+02  0.16731818728E+03  0.12499919252E+03 0.  0.
         23    2    1    2    0    0 -0.10453817146E+03  0.17114955349E+02  0.19141683599E+02  0.14268457912E+03  0.93655400685E+02 0.  0.
          5    1    3    3  502    0  0.95151587594E+02 -0.64117468292E+02 -0.31598355033E+02  0.11910256254E+03  0.47000000000E+01 0.  1.
         -5    1    4    4    0  503 -0.53764570548E+02  0.54484331978E+02  0.19932763433E+00  0.76689642122E+02  0.47000000000E+01 0.  1.
          5    1    4    4  503    0 -0.50773600914E+02 -0.37369376629E+02  0.18942355965E+02  0.65994936995E+02  0.47000000000E+01 0. -1.
         -5    1    3    3    0  502  0.93865838687E+01  0.47002512942E+02 -0.23048406316E+01  0.48215624749E+02  0.47000000000E+01 0.  1.
<mgrwt>
<rscale>  0 0.15792027E+03</rscale>
<asrwt>0</asrwt>
<pdfrwt beam="1">  1        2 0.22710866E-01 0.16384733E+03</pdfrwt>
<pdfrwt beam="2">  1       -2 0.24981867E-01 0.16384733E+03</pdfrwt>
<totfact> 0.33193636E+03</totfact>
</mgrwt>
</event>
<event>
 8    1  0.3551276E-004  0.1330898E+03  0.7546771E-02  0.1235923E+00
         -1   -1    0    0    0  501 -0.00000000000E+00  0.00000000000E+00  0.24884872137E+02  0.24884872137E+02  0.00000000000E+00 0.  1.
          1   -1    0    0  501    0  0.00000000000E+00 -0.00000000000E+00 -0.67473145923E+03  0.67473145923E+03  0.00000000000E+00 0. -1.
         25    2    1    2    0    0  0.39018851175E+02  0.23727942167E+02 -0.21370900759E+03  0.25176268173E+03  0.12500968761E+03 0.  0.
         23    2    1    2    0    0 -0.39018851175E+02 -0.23727942167E+02 -0.43613757950E+03  0.44785364964E+03  0.90947332328E+02 0.  0.
          5    1    4    4  502    0 -0.64068770518E+02 -0.92879969789E+01 -0.36808314072E+03  0.37376244157E+03  0.47000000000E+01 0. -1.
         -5    1    4    4    0  502  0.25049919343E+02 -0.14439945188E+02 -0.68054438774E+02  0.74091208068E+02  0.47000000000E+01 0.  1.
          5    1    3    3  503    0 -0.17801822998E+01 -0.48540377396E+02 -0.63465648259E+02  0.80058202551E+02  0.47000000000E+01 0.  1.
         -5    1    3    3    0  503  0.40799033475E+02  0.72268319563E+02 -0.15024335933E+03  0.17170447918E+03  0.47000000000E+01 0.  1.
<mgrwt>
<rscale>  0 0.12445503E+03</rscale>
<asrwt>0</asrwt>
<pdfrwt beam="1">  1        1 0.10380482E+00 0.13308985E+03</pdfrwt>
<pdfrwt beam="2">  1       -1 0.38284427E-02 0.13308985E+03</pdfrwt>
<totfact> 0.75048923E+03</totfact>
</mgrwt>
</event>
<event>
 8    1  0.3551276E-004  0.1327769E+03  0.7546771E-02  0.1236826E+00
         -2   -1    0    0    0  501 -0.00000000000E+00  0.00000000000E+00  0.50914075742E+02  0.50914075742E+02  0.00000000000E+00 0.  1.
          2   -1    0    0  501    0  0.00000000000E+00 -0.00000000000E+00 -0.32662262659E+03  0.32662262659E+03  0.00000000000E+00 0. -1.
         25    2    1    2    0    0 -0.15075278333E+02  0.42155881067E+02 -0.73706339167E+02  0.15186288224E+03  0.12500131297E+03 0.  0.
         23    2    1    2    0    0  0.15075278333E+02 -0.42155881067E+02 -0.20200221168E+03  0.22567382010E+03  0.90107697925E+02 0.  0.
          5    1    3    3  502    0  0.33611534775E+02 -0.29814083016E+02 -0.32044601518E+02  0.55385569443E+02  0.47000000000E+01 0. -1.
         -5    1    3    3    0  502 -0.48686813108E+02  0.71969964083E+02 -0.41661737649E+02  0.96477312798E+02  0.47000000000E+01 0. -1.
          5    1    4    4  503    0  0.27765071817E+02 -0.20278444527E+02 -0.19627574989E+03  0.19931977955E+03  0.47000000000E+01 0. -1.
         -5    1    4    4    0  503 -0.12689793484E+02 -0.21877436540E+02 -0.57264617935E+01  0.26354040542E+02  0.47000000000E+01 0.  1.
<mgrwt>
<rscale>  0 0.12388245E+03</rscale>
<asrwt>0</asrwt>
<pdfrwt beam="1">  1        2 0.50249634E-01 0.13277692E+03</pdfrwt>
<pdfrwt beam="2">  1       -2 0.78329348E-02 0.13277692E+03</pdfrwt>
<totfact> 0.92245283E+03</totfact>
</mgrwt>
</event>
<event>
 8    1  0.3551276E-004  0.3122579E+03  0.7546771E-02  0.1080691E+00
         -1   -1    0    0    0  501 -0.00000000000E+00  0.00000000000E+00  0.14862985081E+04  0.14862985081E+04  0.00000000000E+00 0.  1.
          1   -1    0    0  501    0  0.00000000000E+00 -0.00000000000E+00 -0.14344466948E+03  0.14344466948E+03  0.00000000000E+00 0. -1.
         25    2    1    2    0    0 -0.17461229625E+03 -0.22669747959E+03  0.67512934963E+02  0.31947297408E+03  0.12499513401E+03 0.  0.
         23    2    1    2    0    0  0.17461229625E+03  0.22669747959E+03  0.12753409037E+04  0.13102702035E+04  0.91828015180E+02 0.  0.
          5    1    4    4  502    0  0.11608940133E+03  0.17665599195E+03  0.74774362480E+03  0.77706287198E+03  0.47000000000E+01 0. -1.
         -5    1    3    3    0  503 -0.13244488413E+03 -0.70285906621E+02  0.27020508696E+02  0.15242688048E+03  0.47000000000E+01 0. -1.
          5    1    3    3  503    0 -0.42167412124E+02 -0.15641157297E+03  0.40492426268E+02  0.16704609361E+03  0.47000000000E+01 0. -1.
         -5    1    4    4    0  502  0.58522894925E+02  0.50041487636E+02  0.52759727886E+03  0.53320733151E+03  0.47000000000E+01 0.  1.
<mgrwt>
<rscale>  0 0.30928168E+03</rscale>
<asrwt>0</asrwt>
<pdfrwt beam="1">  1        1 0.22068412E-01 0.31225788E+03</pdfrwt>
<pdfrwt beam="2">  1       -1 0.22866130E+00 0.31225788E+03</pdfrwt>
<totfact> 0.24280799E+01</totfact>
</mgrwt>
</event>
<event>
 8    1  0.3551276E-004  0.2011875E+03  0.7546771E-02  0.1152926E+00
          1   -1    0    0  501    0  0.00000000000E+00  0.00000000000E+00  0.86045615931E+03  0.86045615931E+03  0.00000000000E+00 0. -1.
         -1   -1    0    0    0  501 -0.00000000000E+00 -0.00000000000E+00 -0.45339207239E+02  0.45339207239E+02  0.00000000000E+00 0.  1.
         25    2    1    2    0    0  0.87287280320E+01  0.15740200794E+03  0.31762613117E+03  0.37598243102E+03  0.12499938574E+03 0.  0.
         23    2    1    2    0    0 -0.87287280320E+01 -0.15740200794E+03  0.49749082090E+03  0.52981293553E+03  0.91395005210E+02 0.  0.
          5    1    4    4  502    0  0.35301364864E+02 -0.60010198196E+02  0.13650774173E+03  0.15330969898E+03  0.47000000000E+01 0. -1.
         -5    1    3    3    0  503 -0.17557547351E+02 -0.15608374363E+02  0.59007878493E+02  0.63686015290E+02  0.47000000000E+01 0. -1.
          5    1    3    3  503    0  0.26286275383E+02  0.17301038231E+03  0.25861825268E+03  0.31229641573E+03  0.47000000000E+01 0. -1.
         -5    1    4    4    0  502 -0.44030092896E+02 -0.97391809747E+02  0.36098307917E+03  0.37650323655E+03  0.47000000000E+01 0.  1.
<mgrwt>
<rscale>  0 0.19626852E+03</rscale>
<asrwt>0</asrwt>
<pdfrwt beam="1">  1        1 0.13237786E+00 0.20118755E+03</pdfrwt>
<pdfrwt beam="2">  1       -1 0.69752633E-02 0.20118755E+03</pdfrwt>
<totfact> 0.21714521E+03</totfact>
</mgrwt>
</event>
<event>
 8    1  0.3551276E-004  0.1510997E+03  0.7546771E-02  0.1206117E+00
          1   -1    0    0  501    0  0.00000000000E+00  0.00000000000E+00  0.78585985637E+03  0.78585985637E+03  0.00000000000E+00 0. -1.
         -1   -1    0    0    0  501 -0.00000000000E+00 -0.00000000000E+00 -0.25156384655E+02  0.25156384655E+02  0.00000000000E+00 0.  1.
         25    2    1    2    0    0 -0.83852538649E+02 -0.13297922713E+02  0.42429193872E+03  0.45039402723E+03  0.12499218983E+03 0.  0.
         23    2    1    2    0    0  0.83852538649E+02  0.13297922713E+02  0.33641153300E+03  0.36062221379E+03  0.98323845339E+02 0.  0.
          5    1    4    4  502    0  0.86015075559E+02 -0.11202615135E+02  0.15664160886E+03  0.17911665315E+03  0.47000000000E+01 0.  1.
         -5    1    4    4    0  502 -0.21625369091E+01  0.24500537848E+02  0.17976992414E+03  0.18150556065E+03  0.47000000000E+01 0. -1.
          5    1    3    3  503    0  0.29681311442E+02 -0.21481439365E+02  0.93423991313E+02  0.10046175710E+03  0.47000000000E+01 0.  1.
         -5    1    3    3    0  503 -0.11353385009E+03  0.81835166520E+01  0.33086794741E+03  0.34993227014E+03  0.47000000000E+01 0.  1.
<mgrwt>
<rscale>  0 0.14549745E+03</rscale>
<asrwt>0</asrwt>
<pdfrwt beam="1">  1        1 0.12090150E+00 0.15109974E+03</pdfrwt>
<pdfrwt beam="2">  1       -1 0.38702136E-02 0.15109974E+03</pdfrwt>
<totfact> 0.59576626E+03</totfact>
</mgrwt>
</event>
<event>
 8    1  0.3551276E-004  0.1319692E+03  0.7546771E-02  0.1239086E+00
          2   -1    0    0  501    0  0.00000000000E+00  0.00000000000E+00  0.46695846361E+02  0.46695846361E+02  0.00000000000E+00 0.  1.
         -2   -1    0    0    0  501 -0.00000000000E+00 -0.00000000000E+00 -0.30481963173E+03  0.30481963173E+03  0.00000000000E+00 0. -1.
         25    2    1    2    0    0  0.32595860249E+02  0.26981833249E+02 -0.19357721424E+03  0.23428187323E+03  0.12500139528E+03 0.  0.
         23    2    1    2    0    0 -0.32595860249E+02 -0.26981833249E+02 -0.64546571122E+02  0.11723360485E+03  0.88243690043E+02 0.  0.
          5    1    4    4  502    0 -0.54549554303E+02 -0.30105917265E+02 -0.70090765121E+02  0.93897952503E+02  0.47000000000E+01 0. -1.
         -5    1    4    4    0  502  0.21953694054E+02  0.31240840152E+01  0.55441939985E+01  0.23335652351E+02  0.47000000000E+01 0.  1.
          5    1    3    3  503    0  0.15239930424E+02  0.77067806814E+02 -0.11222462624E+03  0.13706990574E+03  0.47000000000E+01 0. -1.
         -5    1    3    3    0  503  0.17355929825E+02 -0.50085973565E+02 -0.81352588007E+02  0.97211967491E+02  0.47000000000E+01 0. -1.
<mgrwt>
<rscale>  0 0.12246461E+03</rscale>
<asrwt>0</asrwt>
<pdfrwt beam="1">  1        2 0.71839762E-02 0.13196916E+03</pdfrwt>
<pdfrwt beam="2">  1       -2 0.46895329E-01 0.13196916E+03</pdfrwt>
<totfact> 0.40563096E+03</totfact>
</mgrwt>
</event>
<event>
 8    1  0.3551276E-004  0.1282085E+03  0.7546771E-02  0.1244191E+00
         -1   -1    0    0    0  501 -0.00000000000E+00  0.00000000000E+00  0.21150696351E+03  0.21150696351E+03  0.00000000000E+00 0.  1.
          1   -1    0    0  501    0  0.00000000000E+00 -0.00000000000E+00 -0.61795950458E+02  0.61795950458E+02  0.00000000000E+00 0. -1.
         25    2    1    2    0    0  0.71494517856E+00  0.28471646739E+02  0.59322027670E+02  0.14126755925E+03  0.12500509796E+03 0.  0.
         23    2    1    2    0    0 -0.71494517856E+00 -0.28471646739E+02  0.90388985377E+02  0.13203535471E+03  0.91934870433E+02 0.  0.
          5    1    4    4  502    0  0.42058968310E+02 -0.35434469197E+01  0.23041516103E+02  0.48316811730E+02  0.47000000000E+01 0. -1.
         -5    1    4    4    0  502 -0.42773913489E+02 -0.24928199819E+02  0.67347469274E+02  0.83718542982E+02  0.47000000000E+01 0.  1.
          5    1    3    3  503    0  0.46812726879E+02  0.43752860421E+02  0.65898274237E+02  0.92034866981E+02  0.47000000000E+01 0.  1.
         -5    1    3    3    0  503 -0.46097781701E+02 -0.15281213682E+02 -0.65762465667E+01  0.49232692271E+02  0.47000000000E+01 0.  1.
<mgrwt>
<rscale>  0 0.11933904E+03</rscale>
<asrwt>0</asrwt>
<pdfrwt beam="1">  1        1 0.95070694E-02 0.12820850E+03</pdfrwt>
<pdfrwt beam="2">  1       -1 0.32539533E-01 0.12820850E+03</pdfrwt>
<totfact> 0.57787647E+03</totfact>
</mgrwt>
</event>
<event>
 8    1  0.3551276E-004  0.1566355E+03  0.7546771E-02  0.1198574E+00
         -2   -1    0    0    0  501 -0.00000000000E+00  0.00000000000E+00  0.16695978901E+04  0.16695978901E+04  0.00000000000E+00 0.  1.
          2   -1    0    0  501    0  0.00000000000E+00 -0.00000000000E+00 -0.15194466669E+02  0.15194466669E+02  0.00000000000E+00 0. -1.
         25    2    1    2    0    0  0.68006820060E+02 -0.65454386010E+02  0.54936858075E+03  0.57126221832E+03  0.12500192138E+03 0.  0.
         23    2    1    2    0    0 -0.68006820060E+02  0.65454386010E+02  0.11050348427E+04  0.11135301385E+04  0.99690327811E+02 0.  0.
          5    1    4    4  502    0 -0.49942277851E+02  0.91611262068E+02  0.88997196251E+03  0.89607981704E+03  0.47000000000E+01 0. -1.
         -5    1    4    4    0  502 -0.18064542209E+02 -0.26156876057E+02  0.21506288018E+03  0.21745032141E+03  0.47000000000E+01 0.  1.
          5    1    3    3  503    0 -0.21461858946E+02 -0.63284329937E+02  0.24031231637E+03  0.24947468249E+03  0.47000000000E+01 0.  1.
         -5    1    3    3    0  503  0.89468679006E+02 -0.21700560736E+01  0.30905626437E+03  0.32178753583E+03  0.47000000000E+01 0.  1.
<mgrwt>
<rscale>  0 0.15155631E+03</rscale>
<asrwt>0</asrwt>
<pdfrwt beam="1">  1        2 0.23376116E-02 0.15663552E+03</pdfrwt>
<pdfrwt beam="2">  1       -2 0.25686107E+00 0.15663552E+03</pdfrwt>
<totfact> 0.28650988E+02</totfact>
</mgrwt>
</event>
<event>
 8    1  0.3551276E-004  0.1294776E+03  0.7546771E-02  0.1242357E+00
         -1   -1    0    0    0  501 -0.00000000000E+00  0.00000000000E+00  0.17182262417E+03  0.17182262417E+03  0.00000000000E+00 0. -1.
          1   -1    0    0  501    0  0.00000000000E+00 -0.00000000000E+00 -0.88475022245E+02  0.88475022245E+02  0.00000000000E+00 0.  1.
         25    2    1    2    0    0 -0.31376652426E+02 -0.12462087413E+02 -0.43538004920E+01  0.12955077551E+03  0.12499859966E+03 0.  0.
         23    2    1    2    0    0  0.31376652426E+02  0.12462087413E+02  0.87701402420E+02  0.13074687091E+03  0.90903302058E+02 0.  0.
          5    1    3    3  502    0  0.15461887260E+02 -0.53957032048E+02  0.23327753984E+02  0.60964787960E+02  0.47000000000E+01 0. -1.
         -5    1    3    3    0  502 -0.46838539687E+02  0.41494944635E+02 -0.27681554476E+02  0.68585987552E+02  0.47000000000E+01 0. -1.
          5    1    4    4  503    0  0.11639603743E+02  0.35124132111E+02  0.92698932787E+02  0.99921805287E+02  0.47000000000E+01 0. -1.
         -5    1    4    4    0  503  0.19737048684E+02 -0.22662044699E+02 -0.49975303673E+01  0.30825065619E+02  0.47000000000E+01 0.  1.
<mgrwt>
<rscale>  0 0.12044963E+03</rscale>
<asrwt>0</asrwt>
<pdfrwt beam="1">  1        1 0.13611542E-01 0.12947760E+03</pdfrwt>
<pdfrwt beam="2">  1       -1 0.26434250E-01 0.12947760E+03</pdfrwt>
<totfact> 0.51085616E+03</totfact>
</mgrwt>
</event>
<event>
 8    1  0.3551276E-004  0.1450168E+03  0.7546771E-02  0.1217335E+00
         -1   -1    0    0    0  501 -0.00000000000E+00  0.00000000000E+00  0.16224705545E+03  0.16224705545E+03  0.00000000000E+00 0.  1.
          1   -1    0    0  501    0  0.00000000000E+00 -0.00000000000E+00 -0.10611317066E+03  0.10611317066E+03  0.00000000000E+00 0. -1.
         25    2    1    2    0    0  0.98665709562E+01 -0.72906855529E+02  0.46236355584E+02  0.15220927607E+03  0.12496841336E+03 0.  0.
         23    2    1    2    0    0 -0.98665709562E+01  0.72906855529E+02  0.98975292073E+01  0.11615095003E+03  0.89332655306E+02 0.  0.
          5    1    4    4  502    0  0.18753400368E+01  0.26256714541E+02 -0.39071570042E+02  0.47345639126E+02  0.47000000000E+01 0. -1.
         -5    1    4    4    0  502 -0.11741910993E+02  0.46650140988E+02  0.48969099249E+02  0.68805310909E+02  0.47000000000E+01 0.  1.
          5    1    3    3  503    0 -0.13272718190E+02 -0.79444457567E+02  0.77914593581E+02  0.11216220745E+03  0.47000000000E+01 0. -1.
         -5    1    3    3    0  503  0.23139289146E+02  0.65376020373E+01 -0.31678237997E+02  0.40047068621E+02  0.47000000000E+01 0. -1.
<mgrwt>
<rscale>  0 0.13706410E+03</rscale>
<asrwt>0</asrwt>
<pdfrwt beam="1">  1        1 0.16325103E-01 0.14501677E+03</pdfrwt>
<pdfrwt beam="2">  1       -1 0.24961086E-01 0.14501677E+03</pdfrwt>
<totfact> 0.44683374E+03</totfact>
</mgrwt>
</event>
<event>
 8    1  0.3551276E-004  0.1375236E+03  0.7546771E-02  0.1228764E+00
          1   -1    0    0  501    0  0.00000000000E+00  0.00000000000E+00  0.18565662886E+03  0.18565662886E+03  0.00000000000E+00 0. -1.
         -1   -1    0    0    0  501 -0.00000000000E+00 -0.00000000000E+00 -0.82756157191E+02  0.82756157191E+02  0.00000000000E+00 0.  1.
         25    2    1    2    0    0 -0.54613882406E+02 -0.17433212706E+02  0.80043364784E+02  0.15912154853E+03  0.12500453553E+03 0.  0.
         23    2    1    2    0    0  0.54613882406E+02  0.17433212706E+02  0.22857106885E+02  0.10929123752E+03  0.90197196229E+02 0.  0.
          5    1    4    4  502    0  0.32630428904E+02  0.42909694889E+02  0.43592959127E+02  0.69486854090E+02  0.47000000000E+01 0. -1.
         -5    1    4    4    0  502  0.21983453501E+02 -0.25476482183E+02 -0.20735852242E+02  0.39804383433E+02  0.47000000000E+01 0.  1.
          5    1    3    3  503    0 -0.16451131615E+02  0.23326441079E+02 -0.26185659700E+02  0.39019756006E+02  0.47000000000E+01 0.  1.
         -5    1    3    3    0  503 -0.38162750790E+02 -0.40759653784E+02  0.10622902448E+03  0.12010179252E+03  0.47000000000E+01 0.  1.
<mgrwt>
<rscale>  0 0.12912228E+03</rscale>
<asrwt>0</asrwt>
<pdfrwt beam="1">  1        1 0.28562558E-01 0.13752355E+03</pdfrwt>
<pdfrwt beam="2">  1       -1 0.12731717E-01 0.13752355E+03</pdfrwt>
<totfact> 0.64047719E+03</totfact>
</mgrwt>
</event>
<event>
 8    1  0.3551276E-004  0.1489857E+03  0.7546771E-02  0.1211122E+00
          1   -1    0    0  501    0  0.00000000000E+00  0.00000000000E+00  0.10550667199E+03  0.10550667199E+03  0.00000000000E+00 0. -1.
         -1   -1    0    0    0  501 -0.00000000000E+00 -0.00000000000E+00 -0.30217809485E+03  0.30217809485E+03  0.00000000000E+00 0.  1.
         25    2    1    2    0    0  0.28841877995E+02 -0.75762510342E+02 -0.23656073427E+03  0.27956704372E+03  0.12499975616E+03 0.  0.
         23    2    1    2    0    0 -0.28841877995E+02  0.75762510342E+02  0.39889311416E+02  0.12811772312E+03  0.90836016598E+02 0.  0.
          5    1    3    3  502    0  0.77743602382E+02 -0.36627652186E+02 -0.14199380982E+03  0.16604211708E+03  0.47000000000E+01 0.  1.
         -5    1    4    4    0  503 -0.61742420572E+02  0.50468760380E+02  0.23698053499E+02  0.83324126230E+02  0.47000000000E+01 0.  1.
          5    1    4    4  503    0  0.32900542577E+02  0.25293749962E+02  0.16191257918E+02  0.44793596885E+02  0.47000000000E+01 0. -1.
         -5    1    3    3    0  502 -0.48901724386E+02 -0.39134858156E+02 -0.94566924446E+02  0.11352492665E+03  0.47000000000E+01 0.  1.
<mgrwt>
<rscale>  0 0.14165292E+03</rscale>
<asrwt>0</asrwt>
<pdfrwt beam="1">  1        1 0.16231796E-01 0.14898574E+03</pdfrwt>
<pdfrwt beam="2">  1       -1 0.46488937E-01 0.14898574E+03</pdfrwt>
<totfact> 0.15496142E+03</totfact>
</mgrwt>
</event>
<event>
 8    1  0.3551276E-004  0.1350756E+03  0.7546771E-02  0.1233165E+00
          1   -1    0    0  501    0  0.00000000000E+00  0.00000000000E+00  0.11751555006E+03  0.11751555006E+03  0.00000000000E+00 0. -1.
         -1   -1    0    0    0  501 -0.00000000000E+00 -0.00000000000E+00 -0.12253141832E+03  0.12253141832E+03  0.00000000000E+00 0.  1.
         25    2    1    2    0    0  0.12955707114E+02  0.49532097011E+02  0.12137213316E+02  0.13561977881E+03  0.12499653385E+03 0.  0.
         23    2    1    2    0    0 -0.12955707114E+02 -0.49532097011E+02 -0.17153081572E+02  0.10442718958E+03  0.89384174964E+02 0.  0.
          5    1    3    3  502    0  0.24894445881E+02  0.81703425113E+02  0.36779234540E+02  0.93112755326E+02  0.47000000000E+01 0.  1.
         -5    1    4    4    0  503  0.69265412813E+01  0.21606048587E+02 -0.19635709632E+02  0.30371852141E+02  0.47000000000E+01 0.  1.
          5    1    4    4  503    0 -0.19882248396E+02 -0.71138145598E+02  0.24826280609E+01  0.74055337434E+02  0.47000000000E+01 0. -1.
         -5    1    3    3    0  502 -0.11938738766E+02 -0.32171328102E+02 -0.24642021224E+02  0.42507023481E+02  0.47000000000E+01 0.  1.
<mgrwt>
<rscale>  0 0.12622669E+03</rscale>
<asrwt>0</asrwt>
<pdfrwt beam="1">  1        1 0.18079315E-01 0.13507558E+03</pdfrwt>
<pdfrwt beam="2">  1       -1 0.18850987E-01 0.13507558E+03</pdfrwt>
<totfact> 0.61487661E+03</totfact>
</mgrwt>
</event>
<event>
 8    1  0.3551276E-004  0.1820840E+03  0.7546771E-02  0.1171237E+00
          3   -1    0    0  501    0  0.00000000000E+00  0.00000000000E+00  0.97287302368E+03  0.97287302368E+03  0.00000000000E+00 0. -1.
         -3   -1    0    0    0  501 -0.00000000000E+00 -0.00000000000E+00 -0.35718633882E+02  0.35718633882E+02  0.00000000000E+00 0.  1.
         25    2    1    2    0    0 -0.11622334571E+03  0.63412954154E+02  0.69109982738E+03  0.71468422354E+03  0.12500199652E+03 0.  0.
         23    2    1    2    0    0  0.11622334571E+03 -0.63412954154E+02  0.24605456243E+03  0.29390743403E+03  0.91157354291E+02 0.  0.
          5    1    4    4  502    0  0.83163237435E+02 -0.34607852935E+01  0.18132385100E+03  0.19957086470E+03  0.47000000000E+01 0. -1.
         -5    1    3    3    0  503  0.17294608749E+02  0.11749923958E+02  0.23143754300E+02  0.31541838372E+02  0.47000000000E+01 0. -1.
          5    1    3    3  503    0 -0.13351795446E+03  0.51663030196E+02  0.66795607308E+03  0.68314238517E+03  0.47000000000E+01 0. -1.
         -5    1    4    4    0  502  0.33060108279E+02 -0.59952168860E+02  0.64730711426E+02  0.94336569326E+02  0.47000000000E+01 0.  1.
<mgrwt>
<rscale>  0 0.17649714E+03</rscale>
<asrwt>0</asrwt>
<pdfrwt beam="1">  1        3 0.14967275E+00 0.18208396E+03</pdfrwt>
<pdfrwt beam="2">  1       -3 0.54951752E-02 0.18208396E+03</pdfrwt>
<totfact> 0.16409827E+02</totfact>
</mgrwt>
</event>
<event>
 8    1  0.3551276E-004  0.1331875E+03  0.7546771E-02  0.1232907E+00
         -1   -1    0    0    0  501 -0.00000000000E+00  0.00000000000E+00  0.35556002070E+02  0.35556002070E+02  0.00000000000E+00 0.  1.
          1   -1    0    0  501    0  0.00000000000E+00 -0.00000000000E+00 -0.56650544481E+03  0.56650544481E+03  0.00000000000E+00 0. -1.
         25    2    1    2    0    0 -0.23428857986E+02 -0.39579943737E+02 -0.12741515134E+03  0.18431907356E+03  0.12499366686E+03 0.  0.
         23    2    1    2    0    0  0.23428857986E+02  0.39579943737E+02 -0.40353429140E+03  0.41774237332E+03  0.97740896245E+02 0.  0.
          5    1    3    3  502    0  0.23789127010E+02 -0.18881638967E+02  0.13966168169E+02  0.33757705895E+02  0.47000000000E+01 0. -1.
         -5    1    3    3    0  502 -0.47217984996E+02 -0.20698304770E+02 -0.14138131951E+03  0.15056136767E+03  0.47000000000E+01 0. -1.
          5    1    4    4  503    0 -0.24132927394E+02  0.35734849333E+02 -0.30600688434E+03  0.30906581970E+03  0.47000000000E+01 0. -1.
         -5    1    4    4    0  503  0.47561785380E+02  0.38450944041E+01 -0.97527407056E+02  0.10867655362E+03  0.47000000000E+01 0.  1.
<mgrwt>
<rscale>  0 0.12639376E+03</rscale>
<asrwt>0</asrwt>
<pdfrwt beam="1">  1        1 0.87154686E-01 0.13318746E+03</pdfrwt>
<pdfrwt beam="2">  1       -1 0.54701540E-02 0.13318746E+03</pdfrwt>
<totfact> 0.56382930E+03</totfact>
</mgrwt>
</event>
<event>
 8    1  0.3551276E-004  0.1357042E+03  0.7546771E-02  0.1232112E+00
          4   -1    0    0  501    0  0.00000000000E+00  0.00000000000E+00  0.66016878512E+02  0.66016878512E+02  0.00000000000E+00 0. -1.
         -4   -1    0    0    0  501 -0.00000000000E+00 -0.00000000000E+00 -0.27357727731E+03  0.27357727731E+03  0.00000000000E+00 0.  1.
         25    2    1    2    0    0  0.25365328734E+02  0.46337726815E+02 -0.38245757254E+02  0.14099066467E+03  0.12500017899E+03 0.  0.
         23    2    1    2    0    0 -0.25365328734E+02 -0.46337726815E+02 -0.16931464155E+03  0.19860349116E+03  0.89360584323E+02 0.  0.
          5    1    3    3  502    0 -0.29543491999E+00 -0.30424506195E+02  0.23788137091E+02  0.38906340425E+02  0.47000000000E+01 0. -1.
         -5    1    4    4    0  503  0.27108555213E+02  0.69964471971E+01 -0.55098041329E+02  0.61981514965E+02  0.47000000000E+01 0.  1.
          5    1    4    4  503    0 -0.52473883947E+02 -0.53334174012E+02 -0.11421660022E+03  0.13662197619E+03  0.47000000000E+01 0. -1.
         -5    1    3    3    0  502  0.25660763654E+02  0.76762233010E+02 -0.62033894345E+02  0.10208432424E+03  0.47000000000E+01 0. -1.
<mgrwt>
<rscale>  0 0.12691170E+03</rscale>
<asrwt>0</asrwt>
<pdfrwt beam="1">  1        4 0.10156443E-01 0.13570420E+03</pdfrwt>
<pdfrwt beam="2">  1       -4 0.42088812E-01 0.13570420E+03</pdfrwt>
<totfact> 0.67268109E+02</totfact>
</mgrwt>
</event>
<event>
 8    1  0.3551276E-004  0.1324672E+03  0.7546771E-02  0.1238207E+00
         -3   -1    0    0    0  501 -0.00000000000E+00  0.00000000000E+00  0.12444152337E+03  0.12444152337E+03  0.00000000000E+00 0.  1.
          3   -1    0    0  501    0  0.00000000000E+00 -0.00000000000E+00 -0.12872070807E+03  0.12872070807E+03  0.00000000000E+00 0. -1.
         25    2    1    2    0    0  0.36244735630E+02 -0.24672029263E+02  0.48910964303E+02  0.14120853342E+03  0.12500071037E+03 0.  0.
         23    2    1    2    0    0 -0.36244735630E+02  0.24672029263E+02 -0.53190149001E+02  0.11195369801E+03  0.88215920667E+02 0.  0.
          5    1    3    3  502    0  0.94295952983E+01 -0.73671012400E+02  0.15712668713E+02  0.76061246990E+02  0.47000000000E+01 0. -1.
         -5    1    4    4    0  503 -0.11633109148E+02 -0.18321811967E+02  0.15537573877E+02  0.27102107375E+02  0.47000000000E+01 0.  1.
          5    1    4    4  503    0 -0.24611626482E+02  0.42993841230E+02 -0.68727722877E+02  0.84851590638E+02  0.47000000000E+01 0. -1.
         -5    1    3    3    0  502  0.26815140332E+02  0.48998983137E+02  0.33198295591E+02  0.65147286433E+02  0.47000000000E+01 0. -1.
<mgrwt>
<rscale>  0 0.12301346E+03</rscale>
<asrwt>0</asrwt>
<pdfrwt beam="1">  1        3 0.19803186E-01 0.13246723E+03</pdfrwt>
<pdfrwt beam="2">  1       -3 0.19144850E-01 0.13246723E+03</pdfrwt>
<totfact> 0.12694189E+03</totfact>
</mgrwt>
</event>
<event>
 8    1  0.3551276E-004  0.1352805E+03  0.7546771E-02  0.1232946E+00
         -2   -1    0    0    0  501 -0.00000000000E+00  0.00000000000E+00  0.45082348704E+03  0.45082348704E+03  0.00000000000E+00 0.  1.
          2   -1    0    0  501    0  0.00000000000E+00 -0.00000000000E+00 -0.31495957076E+02  0.31495957076E+02  0.00000000000E+00 0. -1.
         25    2    1    2    0    0  0.48512903542E+02 -0.17900806227E+02  0.23388759965E+03  0.27019293514E+03  0.12500748879E+03 0.  0.
         23    2    1    2    0    0 -0.48512903542E+02  0.17900806227E+02  0.18543993031E+03  0.21212650898E+03  0.89082811945E+02 0.  0.
          5    1    4    4  502    0 -0.56840322743E+02  0.36980245848E+02  0.17622574217E+03  0.18888081712E+03  0.47000000000E+01 0. -1.
         -5    1    3    3    0  503 -0.26749075518E+02 -0.43785460102E+02  0.61285198190E+02  0.80066504074E+02  0.47000000000E+01 0.  1.
          5    1    3    3  503    0  0.75261979060E+02  0.25884653875E+02  0.17260240147E+03  0.19012643107E+03  0.47000000000E+01 0.  1.
         -5    1    4    4    0  502  0.83274192012E+01 -0.19079439621E+02  0.92141881378E+01  0.23245691856E+02  0.47000000000E+01 0.  1.
<mgrwt>
<rscale>  0 0.12636861E+03</rscale>
<asrwt>0</asrwt>
<pdfrwt beam="1">  1        2 0.48455322E-02 0.13528050E+03</pdfrwt>
<pdfrwt beam="2">  1       -2 0.69357455E-01 0.13528050E+03</pdfrwt>
<totfact> 0.30459693E+03</totfact>
</mgrwt>
</event>
<event>
 8    1  0.3551276E-004  0.1944618E+03  0.7546771E-02  0.1159171E+00
          2   -1    0    0  501    0  0.00000000000E+00  0.00000000000E+00  0.60302292534E+02  0.60302292534E+02  0.00000000000E+00 0. -1.
         -2   -1    0    0    0  501 -0.00000000000E+00 -0.00000000000E+00 -0.59199447041E+03  0.59199447041E+03  0.00000000000E+00 0.  1.
         25    2    1    2    0    0 -0.20309667111E+02 -0.14755219970E+03 -0.35075657010E+03  0.40105555463E+03  0.12502500637E+03 0.  0.
         23    2    1    2    0    0  0.20309667111E+02  0.14755219970E+03 -0.18093560777E+03  0.25124120831E+03  0.90555598269E+02 0.  0.
          5    1    3    3  502    0 -0.25094600597E+01 -0.16732029846E+03 -0.30489721887E+03  0.34783154506E+03  0.47000000000E+01 0. -1.
         -5    1    3    3    0  502 -0.17800207052E+02  0.19768098756E+02 -0.45859351232E+02  0.53224009572E+02  0.47000000000E+01 0. -1.
          5    1    4    4  503    0  0.51040167850E+02  0.99282173991E+02 -0.14666344596E+03  0.18437544627E+03  0.47000000000E+01 0. -1.
         -5    1    4    4    0  503 -0.30730500739E+02  0.48270025708E+02 -0.34272161811E+02  0.66865762036E+02  0.47000000000E+01 0.  1.
<mgrwt>
<rscale>  0 0.18921568E+03</rscale>
<asrwt>0</asrwt>
<pdfrwt beam="1">  1        2 0.92772758E-02 0.19446179E+03</pdfrwt>
<pdfrwt beam="2">  1       -2 0.91076072E-01 0.19446179E+03</pdfrwt>
<totfact> 0.74261459E+02</totfact>
</mgrwt>
</event>
<event>
 8    1  0.3551276E-004  0.1378113E+03  0.7546771E-02  0.1226748E+00
          1   -1    0    0  501    0  0.00000000000E+00  0.00000000000E+00  0.32001345700E+03  0.32001345700E+03  0.00000000000E+00 0. -1.
         -1   -1    0    0    0  501 -0.00000000000E+00 -0.00000000000E+00 -0.48335349125E+02  0.48335349125E+02  0.00000000000E+00 0.  1.
         25    2    1    2    0    0  0.65662648691E+01 -0.57640434625E+02  0.14345149651E+03  0.19892278047E+03  0.12500562068E+03 0.  0.
         23    2    1    2    0    0 -0.65662648691E+01  0.57640434625E+02  0.12822661137E+03  0.16942602566E+03  0.94326977946E+02 0.  0.
          5    1    3    3  502    0  0.14376966261E+02 -0.33618322408E+02 -0.13966793609E+02  0.39421441933E+02  0.47000000000E+01 0.  1.
         -5    1    3    3    0  502 -0.78107013914E+01 -0.24022112218E+02  0.15741829012E+03  0.15950133854E+03  0.47000000000E+01 0.  1.
          5    1    4    4  503    0 -0.42796839854E+02  0.63761525501E+01  0.30377358661E+02  0.53076348236E+02  0.47000000000E+01 0. -1.
         -5    1    4    4    0  503  0.36230574985E+02  0.51264282075E+02  0.97849252709E+02  0.11634967742E+03  0.47000000000E+01 0.  1.
<mgrwt>
<rscale>  0 0.13047839E+03</rscale>
<asrwt>0</asrwt>
<pdfrwt beam="1">  1        1 0.49232838E-01 0.13781125E+03</pdfrwt>
<pdfrwt beam="2">  1       -1 0.74362078E-02 0.13781125E+03</pdfrwt>
<totfact> 0.74075984E+03</totfact>
</mgrwt>
</event>
<event>
 8    1  0.3551276E-004  0.1365411E+03  0.7546771E-02  0.1230865E+00
          2   -1    0    0  501    0  0.00000000000E+00  0.00000000000E+00  0.48528163469E+03  0.48528163469E+03  0.00000000000E+00 0. -1.
         -2   -1    0    0    0  501 -0.00000000000E+00 -0.00000000000E+00 -0.30150071907E+02  0.30150071907E+02  0.00000000000E+00 0.  1.
         25    2    1    2    0    0  0.40500755319E+02 -0.37136104916E+02  0.23655897323E+03  0.27313661270E+03  0.12499623960E+03 0.  0.
         23    2    1    2    0    0 -0.40500755319E+02  0.37136104916E+02  0.21857258956E+03  0.24229509390E+03  0.88958047143E+02 0.  0.
          5    1    4    4  502    0  0.50953953481E+01  0.51045304930E+02  0.15038871037E+03  0.15896679029E+03  0.47000000000E+01 0. -1.
         -5    1    3    3    0  503  0.57266876607E+02  0.30509000964E+02  0.13522899876E+03  0.15006420760E+03  0.47000000000E+01 0. -1.
          5    1    3    3  503    0 -0.16766121288E+02 -0.67645105880E+02  0.10132997447E+03  0.12307240510E+03  0.47000000000E+01 0. -1.
         -5    1    4    4    0  502 -0.45596150667E+02 -0.13909200014E+02  0.68183879184E+02  0.83328303602E+02  0.47000000000E+01 0.  1.
<mgrwt>
<rscale>  0 0.12772901E+03</rscale>
<asrwt>0</asrwt>
<pdfrwt beam="1">  1        2 0.74658707E-01 0.13654106E+03</pdfrwt>
<pdfrwt beam="2">  1       -2 0.46384730E-02 0.13654106E+03</pdfrwt>
<totfact> 0.13392520E+04</totfact>
</mgrwt>
</event>
<event>
 8    1  0.3551276E-004  0.2566612E+03  0.7546771E-02  0.1111500E+00
         -1   -1    0    0    0  501 -0.00000000000E+00  0.00000000000E+00  0.55406958710E+03  0.55406958710E+03  0.00000000000E+00 0.  1.
          1   -1    0    0  501    0  0.00000000000E+00 -0.00000000000E+00 -0.12113947103E+03  0.12113947103E+03  0.00000000000E+00 0. -1.
         25    2    1    2    0    0  0.20189955090E+03 -0.97396552704E+02  0.13040388840E+03  0.28788911706E+03  0.12500180991E+03 0.  0.
         23    2    1    2    0    0 -0.20189955090E+03  0.97396552704E+02  0.30252622768E+03  0.38731994107E+03  0.90802539526E+02 0.  0.
          5    1    3    3  502    0  0.80612554853E+02 -0.24516945064E+02  0.11895661480E+03  0.14585002845E+03  0.47000000000E+01 0.  1.
         -5    1    4    4    0  503 -0.11683273689E+03  0.94471486435E+02  0.23315742213E+03  0.27741525490E+03  0.47000000000E+01 0.  1.
          5    1    4    4  503    0 -0.85066814005E+02  0.29250662687E+01  0.69368805548E+02  0.10990468616E+03  0.47000000000E+01 0. -1.
         -5    1    3    3    0  502  0.12128699605E+03 -0.72879607640E+02  0.11447273598E+02  0.14203908861E+03  0.47000000000E+01 0.  1.
<mgrwt>
<rscale>  0 0.25287719E+03</rscale>
<asrwt>0</asrwt>
<pdfrwt beam="1">  1        1 0.18636842E-01 0.25666120E+03</pdfrwt>
<pdfrwt beam="2">  1       -1 0.85241474E-01 0.25666120E+03</pdfrwt>
<totfact> 0.40101023E+02</totfact>
</mgrwt>
</event>
<event>
 8    1  0.3551276E-004  0.1841146E+03  0.7546771E-02  0.1169099E+00
         -1   -1    0    0    0  501 -0.00000000000E+00  0.00000000000E+00  0.35966157572E+03  0.35966157572E+03  0.00000000000E+00 0.  1.
          1   -1    0    0  501    0  0.00000000000E+00 -0.00000000000E+00 -0.95597348840E+02  0.95597348840E+02  0.00000000000E+00 0. -1.
         25    2    1    2    0    0  0.43795243902E+02 -0.12788571559E+03  0.59425628097E+02  0.19346731407E+03  0.12500166679E+03 0.  0.
         23    2    1    2    0    0 -0.43795243902E+02  0.12788571559E+03  0.20463859878E+03  0.26179161048E+03  0.91570254823E+02 0.  0.
          5    1    3    3  502    0  0.38984128269E+02  0.60442397485E+01  0.42709310743E+02  0.58330697880E+02  0.47000000000E+01 0.  1.
         -5    1    3    3    0  502  0.48111156328E+01 -0.13392995534E+03  0.16716317354E+02  0.13513661619E+03  0.47000000000E+01 0.  1.
          5    1    4    4  503    0 -0.31765422430E+02  0.41023585368E+02  0.17304036530E+02  0.54895321283E+02  0.47000000000E+01 0. -1.
         -5    1    4    4    0  503 -0.12029821472E+02  0.86862130222E+02  0.18733456225E+03  0.20689628920E+03  0.47000000000E+01 0.  1.
<mgrwt>
<rscale>  0 0.17866704E+03</rscale>
<asrwt>0</asrwt>
<pdfrwt beam="1">  1        1 0.14707285E-01 0.18411463E+03</pdfrwt>
<pdfrwt beam="2">  1       -1 0.55332549E-01 0.18411463E+03</pdfrwt>
<totfact> 0.12862352E+03</totfact>
</mgrwt>
</event>
<event>
 8    1  0.3551276E-004  0.1842330E+03  0.7546771E-02  0.1169004E+00
         -2   -1    0    0    0  501 -0.00000000000E+00  0.00000000000E+00  0.23501274840E+02  0.23501274840E+02  0.00000000000E+00 0.  1.
          2   -1    0    0  501    0  0.00000000000E+00 -0.00000000000E+00 -0.13772737984E+04  0.13772737984E+04  0.00000000000E+00 0. -1.
         25    2    1    2    0    0 -0.54148848990E+02  0.12403271852E+03 -0.53384715458E+03  0.56474291957E+03  0.12500227055E+03 0.  0.
         23    2    1    2    0    0  0.54148848990E+02 -0.12403271852E+03 -0.81992536898E+03  0.83603215367E+03  0.91410820797E+02 0.  0.
          5    1    3    3  502    0 -0.77309210947E+02  0.36207690925E+02 -0.17817002986E+03  0.19762176125E+03  0.47000000000E+01 0. -1.
         -5    1    4    4    0  503  0.63690164071E+02 -0.41355045547E+02 -0.30172616996E+03  0.31117109190E+03  0.47000000000E+01 0.  1.
          5    1    4    4  503    0 -0.95413150804E+01 -0.82677672972E+02 -0.51819919902E+03  0.52486106177E+03  0.47000000000E+01 0. -1.
         -5    1    3    3    0  502  0.23160361957E+02  0.87825027595E+02 -0.35567712472E+03  0.36712115832E+03  0.47000000000E+01 0. -1.
<mgrwt>
<rscale>  0 0.17876510E+03</rscale>
<asrwt>0</asrwt>
<pdfrwt beam="1">  1        2 0.21188836E+00 0.18423295E+03</pdfrwt>
<pdfrwt beam="2">  1       -2 0.36155793E-02 0.18423295E+03</pdfrwt>
<totfact> 0.50481350E+03</totfact>
</mgrwt>
</event>
<event>
 8    1  0.3551276E-004  0.3356476E+03  0.7546771E-02  0.1069915E+00
          1   -1    0    0  501    0  0.00000000000E+00  0.00000000000E+00  0.31598624575E+04  0.31598624575E+04  0.00000000000E+00 0. -1.
         -1   -1    0    0    0  501 -0.00000000000E+00 -0.00000000000E+00 -0.39955019788E+02  0.39955019788E+02  0.00000000000E+00 0.  1.
         25    2    1    2    0    0 -0.91557955806E+01  0.31136942950E+03  0.21763969606E+04  0.22021269303E+04  0.12499814844E+03 0.  0.
         23    2    1    2    0    0  0.91557955806E+01 -0.31136942950E+03  0.94351047718E+03  0.99769054699E+03  0.90220046453E+02 0.  0.
          5    1    4    4  502    0  0.73943885612E+01 -0.18790820629E+03  0.42689233116E+03  0.46650115046E+03  0.47000000000E+01 0. -1.
         -5    1    4    4    0  502  0.17614070194E+01 -0.12346122321E+03  0.51661814602E+03  0.53118939653E+03  0.47000000000E+01 0.  1.
          5    1    3    3  503    0 -0.10743509800E+02  0.19150146898E+03  0.17026437428E+04  0.17134194000E+04  0.47000000000E+01 0. -1.
         -5    1    3    3    0  503  0.15877142189E+01  0.11986796052E+03  0.47375321778E+03  0.48870753028E+03  0.47000000000E+01 0. -1.
<mgrwt>
<rscale>  0 0.33277553E+03</rscale>
<asrwt>0</asrwt>
<pdfrwt beam="1">  1        1 0.48613249E+00 0.33564756E+03</pdfrwt>
<pdfrwt beam="2">  1       -1 0.61469286E-02 0.33564756E+03</pdfrwt>
<totfact> 0.70436830E+01</totfact>
</mgrwt>
</event>
<event>
 8    1  0.3551276E-004  0.1698141E+03  0.7546771E-02  0.1184894E+00
         -2   -1    0    0    0  501 -0.00000000000E+00  0.00000000000E+00  0.48068311932E+02  0.48068311932E+02  0.00000000000E+00 0.  1.
          2   -1    0    0  501    0  0.00000000000E+00 -0.00000000000E+00 -0.51936303321E+03  0.51936303321E+03  0.00000000000E+00 0. -1.
         25    2    1    2    0    0  0.11991230546E+02 -0.11431448352E+03 -0.27049540959E+03  0.31938158074E+03  0.12500094701E+03 0.  0.
         23    2    1    2    0    0 -0.11991230546E+02  0.11431448352E+03 -0.20079931169E+03  0.24804976441E+03  0.89424444602E+02 0.  0.
          5    1    4    4  502    0  0.72214316278E+01  0.10245532355E+03 -0.20010874128E+03  0.22497742273E+03  0.47000000000E+01 0. -1.
         -5    1    4    4    0  502 -0.19212662173E+02  0.11859159971E+02 -0.69057040828E+00  0.23072341678E+02  0.47000000000E+01 0.  1.
          5    1    3    3  503    0  0.10790770106E+02 -0.63413965842E+02 -0.25906668986E+02  0.69505519790E+02  0.47000000000E+01 0.  1.
         -5    1    3    3    0  503  0.12004604391E+01 -0.50900517682E+02 -0.24458874060E+03  0.24987606095E+03  0.47000000000E+01 0.  1.
<mgrwt>
<rscale>  0 0.16341563E+03</rscale>
<asrwt>0</asrwt>
<pdfrwt beam="1">  1        2 0.79901998E-01 0.16981410E+03</pdfrwt>
<pdfrwt beam="2">  1       -2 0.73951255E-02 0.16981410E+03</pdfrwt>
<totfact> 0.62034669E+03</totfact>
</mgrwt>
</event>
<event>
 8    1  0.3677996E-004  0.2098085E+03  0.7546771E-02  0.1145532E+00
         -2   -1    0    0    0  501 -0.00000000000E+00  0.00000000000E+00  0.31572062207E+02  0.31572062207E+02  0.00000000000E+00 0.  1.
          2   -1    0    0  501    0  0.00000000000E+00 -0.00000000000E+00 -0.13051095816E+04  0.13051095816E+04  0.00000000000E+00 0. -1.
         25    2    1    2    0    0 -0.16537816112E+03 -0.32349088095E+02 -0.56399202860E+03  0.60175296786E+03  0.12499290513E+03 0.  0.
         23    2    1    2    0    0  0.16537816112E+03  0.32349088095E+02 -0.70954549076E+03  0.73492867591E+03  0.90933797554E+02 0.  0.
          5    1    3    3  502    0 -0.12121556894E+03 -0.25813498175E+01 -0.20053717607E+03  0.23438670292E+03  0.47000000000E+01 0.  1.
         -5    1    3    3    0  502 -0.44162592182E+02 -0.29767738277E+02 -0.36345485253E+03  0.36736626494E+03  0.47000000000E+01 0.  1.
          5    1    4    4  503    0  0.75980314118E+02  0.52565342093E+02 -0.25629430050E+03  0.27247932361E+03  0.47000000000E+01 0. -1.
         -5    1    4    4    0  503  0.89397847006E+02 -0.20216253999E+02 -0.45325119026E+03  0.46244935230E+03  0.47000000000E+01 0.  1.
<mgrwt>
<rscale>  0 0.20506870E+03</rscale>
<asrwt>0</asrwt>
<pdfrwt beam="1">  1        2 0.20078608E+00 0.20980855E+03</pdfrwt>
<pdfrwt beam="2">  1       -2 0.48572407E-02 0.20980855E+03</pdfrwt>
<totfact> 0.35537386E+03</totfact>
</mgrwt>
</event>
<event>
 8    1  0.3551276E-004  0.1718694E+03  0.7546771E-02  0.1182751E+00
          1   -1    0    0  501    0  0.00000000000E+00  0.00000000000E+00  0.16668942024E+04  0.16668942024E+04  0.00000000000E+00 0. -1.
         -1   -1    0    0    0  501 -0.00000000000E+00 -0.00000000000E+00 -0.19711568523E+02  0.19711568523E+02  0.00000000000E+00 0.  1.
         25    2    1    2    0    0  0.11794263375E+03 -0.17983956634E+01  0.12714185909E+04  0.12829825900E+04  0.12500157532E+03 0.  0.
         23    2    1    2    0    0 -0.11794263375E+03  0.17983956634E+01  0.37576404290E+03  0.40362318086E+03  0.88313968943E+02 0.  0.
          5    1    4    4  502    0 -0.67188036437E+02 -0.30497467607E+02  0.28643479017E+03  0.29582310050E+03  0.47000000000E+01 0. -1.
         -5    1    3    3    0  503  0.14093945079E+03 -0.92984152171E+01  0.11748600804E+04  0.11833294925E+04  0.47000000000E+01 0. -1.
          5    1    3    3  503    0 -0.22996817042E+02  0.75000195537E+01  0.96558510570E+02  0.99653097547E+02  0.47000000000E+01 0. -1.
         -5    1    4    4    0  502 -0.50754597313E+02  0.32295863270E+02  0.89329252736E+02  0.10780008037E+03  0.47000000000E+01 0.  1.
<mgrwt>
<rscale>  0 0.16538231E+03</rscale>
<asrwt>0</asrwt>
<pdfrwt beam="1">  1        1 0.25644515E+00 0.17186941E+03</pdfrwt>
<pdfrwt beam="2">  1       -1 0.30325503E-02 0.17186941E+03</pdfrwt>
<totfact> 0.20639069E+03</totfact>
</mgrwt>
</event>
<event>
 8    1  0.3551276E-004  0.1834564E+03  0.7546771E-02  0.1168975E+00
         -2   -1    0    0    0  501 -0.00000000000E+00  0.00000000000E+00  0.15132774658E+03  0.15132774658E+03  0.00000000000E+00 0.  1.
          2   -1    0    0  501    0  0.00000000000E+00 -0.00000000000E+00 -0.20125144261E+03  0.20125144261E+03  0.00000000000E+00 0. -1.
         25    2    1    2    0    0  0.11320657687E+03  0.72233262248E+02 -0.29606276330E+02  0.18582994929E+03  0.12499146065E+03 0.  0.
         23    2    1    2    0    0 -0.11320657687E+03 -0.72233262248E+02 -0.20317419700E+02  0.16674923989E+03  0.96742639198E+02 0.  0.
          5    1    3    3  502    0  0.43839687914E+02  0.32542695472E+02 -0.75698394337E+02  0.93452031385E+02  0.47000000000E+01 0. -1.
         -5    1    4    4    0  503 -0.74590655295E+02 -0.91396929386E+02  0.17814111630E+01  0.11807805886E+03  0.47000000000E+01 0.  1.
          5    1    4    4  503    0 -0.38615921575E+02  0.19163667138E+02 -0.22098830863E+02  0.48671181029E+02  0.47000000000E+01 0. -1.
         -5    1    3    3    0  502  0.69366888957E+02  0.39690566777E+02  0.46092118006E+02  0.92377917907E+02  0.47000000000E+01 0. -1.
<mgrwt>
<rscale>  0 0.17879426E+03</rscale>
<asrwt>0</asrwt>
<pdfrwt beam="1">  1        2 0.30961760E-01 0.18345637E+03</pdfrwt>
<pdfrwt beam="2">  1       -2 0.23281192E-01 0.18345637E+03</pdfrwt>
<totfact> 0.26797320E+03</totfact>
</mgrwt>
</event>
<event>
 8    1  0.3551276E-004  0.2502694E+03  0.7546771E-02  0.1115738E+00
         -2   -1    0    0    0  501 -0.00000000000E+00  0.00000000000E+00  0.13285911458E+03  0.13285911458E+03  0.00000000000E+00 0.  1.
          2   -1    0    0  501    0  0.00000000000E+00 -0.00000000000E+00 -0.44509078954E+03  0.44509078954E+03  0.00000000000E+00 0. -1.
         25    2    1    2    0    0  0.21247975626E+03 -0.43153782801E+02 -0.13677331877E+03  0.28520468453E+03  0.12499950224E+03 0.  0.
         23    2    1    2    0    0 -0.21247975626E+03  0.43153782801E+02 -0.17545835619E+03  0.29274521959E+03  0.88905753729E+02 0.  0.
          5    1    4    4  502    0 -0.17003825722E+03  0.65155455586E+02 -0.11456952624E+03  0.21518947152E+03  0.47000000000E+01 0. -1.
         -5    1    3    3    0  503  0.10557548750E+03 -0.29263670910E+02 -0.13928420114E+03  0.17727020246E+03  0.47000000000E+01 0. -1.
          5    1    3    3  503    0  0.10690426876E+03 -0.13890111890E+02  0.25108823706E+01  0.10793448206E+03  0.47000000000E+01 0. -1.
         -5    1    4    4    0  502 -0.42441499042E+02 -0.22001672786E+02 -0.60888829943E+02  0.77555748066E+02  0.47000000000E+01 0.  1.
<mgrwt>
<rscale>  0 0.24618768E+03</rscale>
<asrwt>0</asrwt>
<pdfrwt beam="1">  1        2 0.68475505E-01 0.25026940E+03</pdfrwt>
<pdfrwt beam="2">  1       -2 0.20439864E-01 0.25026940E+03</pdfrwt>
<totfact> 0.14339249E+03</totfact>
</mgrwt>
</event>
<event>
 8    1  0.3551276E-004  0.1267849E+03  0.7546771E-02  0.1246927E+00
         -2   -1    0    0    0  501 -0.00000000000E+00  0.00000000000E+00  0.90666310950E+02  0.90666310950E+02  0.00000000000E+00 0.  1.
          2   -1    0    0  501    0  0.00000000000E+00 -0.00000000000E+00 -0.13544892758E+03  0.13544892758E+03  0.00000000000E+00 0. -1.
         25    2    1    2    0    0  0.70647932124E+00  0.21156424436E+02 -0.34288560127E+02  0.13133970436E+03  0.12500527660E+03 0.  0.
         23    2    1    2    0    0 -0.70647932124E+00 -0.21156424436E+02 -0.10494056503E+02  0.94775534165E+02  0.91783349505E+02 0.  0.
          5    1    3    3  502    0 -0.17141195306E+02  0.62243631881E+02 -0.51908478876E+02  0.82973914368E+02  0.47000000000E+01 0.  1.
         -5    1    3    3    0  502  0.17847674627E+02 -0.41087207445E+02  0.17619918750E+02  0.48365789996E+02  0.47000000000E+01 0.  1.
          5    1    4    4  503    0 -0.36328164746E+02 -0.31854893155E+02 -0.24968143089E+02  0.54589082618E+02  0.47000000000E+01 0. -1.
         -5    1    4    4    0  503  0.35621685425E+02  0.10698468719E+02  0.14474086586E+02  0.40186451547E+02  0.47000000000E+01 0.  1.
<mgrwt>
<rscale>  0 0.11770775E+03</rscale>
<asrwt>0</asrwt>
<pdfrwt beam="1">  1        2 0.20838297E-01 0.12678491E+03</pdfrwt>
<pdfrwt beam="2">  1       -2 0.13948663E-01 0.12678491E+03</pdfrwt>
<totfact> 0.95772767E+03</totfact>
</mgrwt>
</event>
<event>
 8    1  0.3551276E-004  0.1617562E+03  0.7546771E-02  0.1194003E+00
          1   -1    0    0  501    0  0.00000000000E+00  0.00000000000E+00  0.40630980350E+03  0.40630980350E+03  0.00000000000E+00 0. -1.
         -1   -1    0    0    0  501 -0.00000000000E+00 -0.00000000000E+00 -0.56473205140E+02  0.56473205140E+02  0.00000000000E+00 0.  1.
         25    2    1    2    0    0 -0.10244618863E+03  0.67348232855E+01  0.15392138276E+03  0.22328653385E+03  0.12499801886E+03 0.  0.
         23    2    1    2    0    0  0.10244618863E+03 -0.67348232855E+01  0.19591521560E+03  0.23949647479E+03  0.91843401093E+02 0.  0.
          5    1    3    3  502    0 -0.49183565972E+02 -0.43471643490E+02  0.13073192746E+03  0.14636165416E+03  0.47000000000E+01 0.  1.
         -5    1    3    3    0  502 -0.53262622660E+02  0.50206466776E+02  0.23189455298E+02  0.76924879693E+02  0.47000000000E+01 0.  1.
          5    1    4    4  503    0  0.49954892441E+02 -0.27555046200E+02  0.16563638318E+03  0.17524917485E+03  0.47000000000E+01 0. -1.
         -5    1    4    4    0  503  0.52491296191E+02  0.20820222914E+02  0.30278832418E+02  0.64247299948E+02  0.47000000000E+01 0.  1.
<mgrwt>
<rscale>  0 0.15538918E+03</rscale>
<asrwt>0</asrwt>
<pdfrwt beam="1">  1        1 0.62509199E-01 0.16175625E+03</pdfrwt>
<pdfrwt beam="2">  1       -1 0.86881857E-02 0.16175625E+03</pdfrwt>
<totfact> 0.43789536E+03</totfact>
</mgrwt>
</event>
<event>
 8    1  0.3551276E-004  0.1250003E+03  0.7546771E-02  0.1251380E+00
          2   -1    0    0  501    0  0.00000000000E+00  0.00000000000E+00  0.23415087449E+03  0.23415087449E+03  0.00000000000E+00 0.  1.
         -2   -1    0    0    0  501 -0.00000000000E+00 -0.00000000000E+00 -0.49343780169E+02  0.49343780169E+02  0.00000000000E+00 0. -1.
         25    2    1    2    0    0 -0.45787439385E-01  0.38603152484E+00  0.11105544061E+03  0.16720761373E+03  0.12499969634E+03 0.  0.
         23    2    1    2    0    0  0.45787439385E-01 -0.38603152484E+00  0.73751653708E+02  0.11628704092E+03  0.89906720242E+02 0.  0.
          5    1    4    4  502    0 -0.42786226764E+02 -0.11580533569E+02  0.44703517865E+02  0.63128951108E+02  0.47000000000E+01 0. -1.
         -5    1    3    3    0  503  0.92636015293E+01 -0.32809291486E+02 -0.14185258393E+02  0.37223318992E+02  0.47000000000E+01 0. -1.
          5    1    3    3  503    0 -0.93093889687E+01  0.33195323011E+02  0.12524069900E+03  0.12998429474E+03  0.47000000000E+01 0. -1.
         -5    1    4    4    0  502  0.42832014203E+02  0.11194502044E+02  0.29048135842E+02  0.53158089814E+02  0.47000000000E+01 0.  1.
<mgrwt>
<rscale>  0 0.11511511E+03</rscale>
<asrwt>0</asrwt>
<pdfrwt beam="1">  1        2 0.36023211E-01 0.12500030E+03</pdfrwt>
<pdfrwt beam="2">  1       -2 0.75913509E-02 0.12500030E+03</pdfrwt>
<totfact> 0.13709175E+04</totfact>
</mgrwt>
</event>
<event>
 8    1  0.3551276E-004  0.1517280E+03  0.7546771E-02  0.1206530E+00
          1   -1    0    0  501    0  0.00000000000E+00  0.00000000000E+00  0.16662667632E+03  0.16662667632E+03  0.00000000000E+00 0. -1.
         -1   -1    0    0    0  501 -0.00000000000E+00 -0.00000000000E+00 -0.16901997384E+03  0.16901997384E+03  0.00000000000E+00 0.  1.
         25    2    1    2    0    0  0.19925053314E+02  0.83654010228E+02 -0.94390331975E+02  0.17869223380E+03  0.12500551378E+03 0.  0.
         23    2    1    2    0    0 -0.19925053314E+02 -0.83654010228E+02  0.91997034454E+02  0.15695441637E+03  0.93681552569E+02 0.  0.
          5    1    4    4  502    0 -0.52280140994E+02 -0.23267145552E+02  0.52128647068E+02  0.77550364600E+02  0.47000000000E+01 0. -1.
         -5    1    3    3    0  503  0.42000036832E+02 -0.19198161908E+02 -0.27925000454E+02  0.54170731626E+02  0.47000000000E+01 0.  1.
          5    1    3    3  503    0 -0.22074983518E+02  0.10285217214E+03 -0.66465331520E+02  0.12452150218E+03  0.47000000000E+01 0.  1.
         -5    1    4    4    0  502  0.32355087680E+02 -0.60386864675E+02  0.39868387386E+02  0.79404051766E+02  0.47000000000E+01 0.  1.
<mgrwt>
<rscale>  0 0.14517511E+03</rscale>
<asrwt>0</asrwt>
<pdfrwt beam="1">  1        1 0.25634873E-01 0.15172798E+03</pdfrwt>
<pdfrwt beam="2">  1       -1 0.26003073E-01 0.15172798E+03</pdfrwt>
<totfact> 0.23568310E+03</totfact>
</mgrwt>
</event>
<event>
 8    1  0.3551276E-004  0.2318415E+03  0.7546771E-02  0.1128278E+00
         -1   -1    0    0    0  501 -0.00000000000E+00  0.00000000000E+00  0.12002601118E+03  0.12002601118E+03  0.00000000000E+00 0.  1.
          1   -1    0    0  501    0  0.00000000000E+00 -0.00000000000E+00 -0.45068106254E+03  0.45068106254E+03  0.00000000000E+00 0. -1.
         25    2    1    2    0    0 -0.63434276240E+02  0.18466652850E+03 -0.24867636155E+03  0.33998587129E+03  0.12499930293E+03 0.  0.
         23    2    1    2    0    0  0.63434276240E+02 -0.18466652850E+03 -0.81978689803E+02  0.23072120243E+03  0.91575834782E+02 0.  0.
          5    1    4    4  502    0  0.58335153858E+01 -0.24027282122E+02 -0.51475361918E+02  0.57298717896E+02  0.47000000000E+01 0. -1.
         -5    1    3    3    0  503 -0.64463839854E+01  0.16813020531E+03 -0.15392333396E+03  0.22808727396E+03  0.47000000000E+01 0.  1.
          5    1    3    3  503    0 -0.56987892255E+02  0.16536323198E+02 -0.94753027588E+02  0.11189859734E+03  0.47000000000E+01 0.  1.
         -5    1    4    4    0  502  0.57600760855E+02 -0.16063924638E+03 -0.30503327885E+02  0.17342248453E+03  0.47000000000E+01 0.  1.
<mgrwt>
<rscale>  0 0.22768723E+03</rscale>
<asrwt>0</asrwt>
<pdfrwt beam="1">  1        1 0.69335546E-01 0.23184145E+03</pdfrwt>
<pdfrwt beam="2">  1       -1 0.18465541E-01 0.23184145E+03</pdfrwt>
<totfact> 0.11904813E+03</totfact>
</mgrwt>
</event>
<event>
 8    1  0.3551276E-004  0.1289111E+03  0.7546771E-02  0.1249133E+00
          2   -1    0    0  501    0  0.00000000000E+00  0.00000000000E+00  0.46228860451E+03  0.46228860451E+03  0.00000000000E+00 0. -1.
         -2   -1    0    0    0  501 -0.00000000000E+00 -0.00000000000E+00 -0.38567582223E+02  0.38567582223E+02  0.00000000000E+00 0.  1.
         25    2    1    2    0    0 -0.28718318871E+02  0.12958007346E+02  0.38642839924E+03  0.40736344444E+03  0.12500166534E+03 0.  0.
         23    2    1    2    0    0  0.28718318871E+02 -0.12958007346E+02  0.37292623047E+02  0.93492742286E+02  0.79733940912E+02 0.  0.
          5    1    3    3  502    0 -0.43712700799E+02 -0.23476182212E+02  0.34989785242E+03  0.35342966552E+03  0.47000000000E+01 0.  1.
         -5    1    3    3    0  502  0.14994381928E+02  0.36434189558E+02  0.36530546821E+02  0.53933778926E+02  0.47000000000E+01 0.  1.
          5    1    4    4  503    0  0.64352926168E+01  0.24472093232E+02  0.42175248165E+02  0.49407872814E+02  0.47000000000E+01 0. -1.
         -5    1    4    4    0  503  0.22283026254E+02 -0.37430100578E+02 -0.48826251182E+01  0.44084869472E+02  0.47000000000E+01 0.  1.
<mgrwt>
<rscale>  0 0.11641388E+03</rscale>
<asrwt>0</asrwt>
<pdfrwt beam="1">  1        2 0.71121320E-01 0.12891109E+03</pdfrwt>
<pdfrwt beam="2">  1       -2 0.59334745E-02 0.12891109E+03</pdfrwt>
<totfact> 0.97072513E+03</totfact>
</mgrwt>
</event>
<event>
 8    1  0.3551276E-004  0.2505051E+03  0.7546771E-02  0.1115410E+00
         -1   -1    0    0    0  501 -0.00000000000E+00  0.00000000000E+00  0.66748191186E+02  0.66748191186E+02  0.00000000000E+00 0.  1.
          1   -1    0    0  501    0  0.00000000000E+00 -0.00000000000E+00 -0.92689677111E+03  0.92689677111E+03  0.00000000000E+00 0. -1.
         25    2    1    2    0    0  0.12625206953E+03  0.17660136377E+03 -0.33719277240E+03  0.42006164381E+03  0.12500076837E+03 0.  0.
         23    2    1    2    0    0 -0.12625206953E+03 -0.17660136377E+03 -0.52295580752E+03  0.57358331848E+03  0.91582857975E+02 0.  0.
          5    1    3    3  502    0  0.85977784639E+02  0.43765406431E+02 -0.71214014129E+02  0.12000465016E+03  0.47000000000E+01 0. -1.
         -5    1    3    3    0  502  0.40274284895E+02  0.13283595734E+03 -0.26597875827E+03  0.30005699365E+03  0.47000000000E+01 0. -1.
          5    1    4    4  503    0 -0.51284022254E+02 -0.82333537903E+02 -0.34677004008E+03  0.36011166754E+03  0.47000000000E+01 0. -1.
         -5    1    4    4    0  503 -0.74968047280E+02 -0.94267825870E+02 -0.17618576744E+03  0.21347165094E+03  0.47000000000E+01 0.  1.
<mgrwt>
<rscale>  0 0.24669696E+03</rscale>
<asrwt>0</asrwt>
<pdfrwt beam="1">  1        1 0.14259950E+00 0.25050513E+03</pdfrwt>
<pdfrwt beam="2">  1       -1 0.10268953E-01 0.25050513E+03</pdfrwt>
<totfact> 0.10658135E+03</totfact>
</mgrwt>
</event>
<event>
 8    1  0.3551276E-004  0.1330027E+03  0.7546771E-02  0.1237037E+00
          2   -1    0    0  501    0  0.00000000000E+00  0.00000000000E+00  0.47261391781E+03  0.47261391781E+03  0.00000000000E+00 0. -1.
         -2   -1    0    0    0  501 -0.00000000000E+00 -0.00000000000E+00 -0.30640071794E+02  0.30640071794E+02  0.00000000000E+00 0.  1.
         25    2    1    2    0    0  0.26381404748E+02 -0.37000652722E+02  0.31427217610E+03  0.34125755786E+03  0.12499877324E+03 0.  0.
         23    2    1    2    0    0 -0.26381404748E+02  0.37000652722E+02  0.12770166992E+03  0.16199643174E+03  0.88713587340E+02 0.  0.
          5    1    3    3  502    0 -0.44122862829E+02 -0.90290904930E+01  0.55891496058E+02  0.71932613124E+02  0.47000000000E+01 0.  1.
         -5    1    3    3    0  502  0.70504267576E+02 -0.27971562229E+02  0.25838068004E+03  0.26932494474E+03  0.47000000000E+01 0.  1.
          5    1    4    4  503    0 -0.52727512243E+02  0.83004494201E+01  0.10160834221E+03  0.11487137683E+03  0.47000000000E+01 0. -1.
         -5    1    4    4    0  503  0.26346107495E+02  0.28700203302E+02  0.26093327712E+02  0.47125054916E+02  0.47000000000E+01 0.  1.
<mgrwt>
<rscale>  0 0.12374910E+03</rscale>
<asrwt>0</asrwt>
<pdfrwt beam="1">  1        2 0.72709828E-01 0.13300271E+03</pdfrwt>
<pdfrwt beam="2">  1       -2 0.47138576E-02 0.13300271E+03</pdfrwt>
<totfact> 0.13429193E+04</totfact>
</mgrwt>
</event>
<event>
 8    1  0.3551276E-004  0.1361524E+03  0.7546771E-02  0.1231533E+00
         -2   -1    0    0    0  501 -0.00000000000E+00  0.00000000000E+00  0.89315211881E+03  0.89315211881E+03  0.00000000000E+00 0.  1.
          2   -1    0    0  501    0  0.00000000000E+00 -0.00000000000E+00 -0.16473023029E+02  0.16473023029E+02  0.00000000000E+00 0. -1.
         25    2    1    2    0    0 -0.22427885414E+02  0.49091364396E+02  0.43223780313E+03  0.45317436814E+03  0.12499806950E+03 0.  0.
         23    2    1    2    0    0  0.22427885414E+02 -0.49091364396E+02  0.44444129265E+03  0.45645077370E+03  0.88917231728E+02 0.  0.
          5    1    3    3  502    0 -0.20452525257E+02 -0.36762447682E+02  0.79101044774E+02  0.89715375680E+02  0.47000000000E+01 0.  1.
         -5    1    3    3    0  502 -0.19753601571E+01  0.85853812078E+02  0.35313675836E+03  0.36345899246E+03  0.47000000000E+01 0.  1.
          5    1    4    4  503    0  0.11054083445E+02 -0.70066112655E+02  0.23266676259E+03  0.24328453572E+03  0.47000000000E+01 0. -1.
         -5    1    4    4    0  503  0.11373801969E+02  0.20974748260E+02  0.21177453006E+03  0.21316623798E+03  0.47000000000E+01 0.  1.
<mgrwt>
<rscale>  0 0.12728983E+03</rscale>
<asrwt>0</asrwt>
<pdfrwt beam="1">  1        2 0.25343119E-02 0.13615245E+03</pdfrwt>
<pdfrwt beam="2">  1       -2 0.13740798E+00 0.13615245E+03</pdfrwt>
<totfact> 0.15075350E+03</totfact>
</mgrwt>
</event>
<event>
 8    1  0.3551276E-004  0.1680231E+03  0.7546771E-02  0.1186722E+00
         -1   -1    0    0    0  501 -0.00000000000E+00  0.00000000000E+00  0.21912383076E+03  0.21912383076E+03  0.00000000000E+00 0.  1.
          1   -1    0    0  501    0  0.00000000000E+00 -0.00000000000E+00 -0.13358733294E+03  0.13358733294E+03  0.00000000000E+00 0. -1.
         25    2    1    2    0    0 -0.84049483534E+02 -0.74454493731E+02 -0.26356115722E+02  0.17007767628E+03  0.12499593519E+03 0.  0.
         23    2    1    2    0    0  0.84049483534E+02  0.74454493731E+02  0.11189261354E+03  0.18263348742E+03  0.90704169930E+02 0.  0.
          5    1    4    4  502    0  0.68065936677E+02  0.87242408372E+02  0.58489723057E+02  0.12524914075E+03  0.47000000000E+01 0. -1.
         -5    1    4    4    0  502  0.15983546857E+02 -0.12787914641E+02  0.53402890485E+02  0.57384346674E+02  0.47000000000E+01 0.  1.
          5    1    3    3  503    0 -0.44063918129E+02 -0.40801620383E+02  0.49414013562E+02  0.77911718265E+02  0.47000000000E+01 0.  1.
         -5    1    3    3    0  503 -0.39985565405E+02 -0.33652873348E+02 -0.75770129284E+02  0.92165958016E+02  0.47000000000E+01 0.  1.
<mgrwt>
<rscale>  0 0.16176184E+03</rscale>
<asrwt>0</asrwt>
<pdfrwt beam="1">  1        1 0.20551897E-01 0.16802313E+03</pdfrwt>
<pdfrwt beam="2">  1       -1 0.33711359E-01 0.16802313E+03</pdfrwt>
<totfact> 0.20216105E+03</totfact>
</mgrwt>
</event>
<event>
 8    1  0.3551276E-004  0.1869876E+03  0.7546771E-02  0.1166353E+00
          2   -1    0    0  501    0  0.00000000000E+00  0.00000000000E+00  0.10566187166E+04  0.10566187166E+04  0.00000000000E+00 0. -1.
         -2   -1    0    0    0  501 -0.00000000000E+00 -0.00000000000E+00 -0.31345786002E+02  0.31345786002E+02  0.00000000000E+00 0.  1.
         25    2    1    2    0    0  0.10549762944E+03 -0.90610956887E+02  0.40888152491E+03  0.44960924299E+03  0.12499709852E+03 0.  0.
         23    2    1    2    0    0 -0.10549762944E+03  0.90610956887E+02  0.61639140565E+03  0.63835525958E+03  0.90658574614E+02 0.  0.
          5    1    3    3  502    0  0.62366145825E+02 -0.74886144968E+02  0.10937780957E+03  0.14657102743E+03  0.47000000000E+01 0.  1.
         -5    1    3    3    0  502  0.43131483614E+02 -0.15724811918E+02  0.29950371534E+03  0.30303821556E+03  0.47000000000E+01 0.  1.
          5    1    4    4  503    0 -0.33838508006E+02  0.67241615610E+02  0.44089556465E+03  0.44730019944E+03  0.47000000000E+01 0. -1.
         -5    1    4    4    0  503 -0.71659121433E+02  0.23369341277E+02  0.17549584100E+03  0.19105506014E+03  0.47000000000E+01 0.  1.
<mgrwt>
<rscale>  0 0.18150672E+03</rscale>
<asrwt>0</asrwt>
<pdfrwt beam="1">  1        2 0.16255670E+00 0.18698762E+03</pdfrwt>
<pdfrwt beam="2">  1       -2 0.48224294E-02 0.18698762E+03</pdfrwt>
<totfact> 0.49575561E+03</totfact>
</mgrwt>
</event>
<event>
 8    1  0.3551276E-004  0.1611460E+03  0.7546771E-02  0.1195305E+00
          2   -1    0    0  501    0  0.00000000000E+00  0.00000000000E+00  0.79384673027E+03  0.79384673027E+03  0.00000000000E+00 0. -1.
         -2   -1    0    0    0  501 -0.00000000000E+00 -0.00000000000E+00 -0.31525511971E+02  0.31525511971E+02  0.00000000000E+00 0.  1.
         25    2    1    2    0    0 -0.83383711190E+02  0.58222408074E+02  0.26685091552E+03  0.31173298483E+03  0.12500140249E+03 0.  0.
         23    2    1    2    0    0  0.83383711190E+02 -0.58222408074E+02  0.49547030278E+03  0.51363925742E+03  0.89396720985E+02 0.  0.
          5    1    4    4  502    0  0.11188152666E+02 -0.31401442729E+02  0.32233869749E+03  0.32409188707E+03  0.47000000000E+01 0. -1.
         -5    1    4    4    0  502  0.72195558524E+02 -0.26820965345E+02  0.17313160530E+03  0.18954737035E+03  0.47000000000E+01 0.  1.
          5    1    3    3  503    0 -0.30769960089E+01 -0.34045873848E+02  0.92277787823E+02  0.98518371668E+02  0.47000000000E+01 0.  1.
         -5    1    3    3    0  503 -0.80306715181E+02  0.92268281922E+02  0.17457312769E+03  0.21321461316E+03  0.47000000000E+01 0.  1.
<mgrwt>
<rscale>  0 0.15428483E+03</rscale>
<asrwt>0</asrwt>
<pdfrwt beam="1">  1        2 0.12213025E+00 0.16114603E+03</pdfrwt>
<pdfrwt beam="2">  1       -2 0.48500794E-02 0.16114603E+03</pdfrwt>
<totfact> 0.71579110E+03</totfact>
</mgrwt>
</event>
<event>
 8    1  0.3551276E-004  0.1356512E+03  0.7546771E-02  0.1230282E+00
         -2   -1    0    0    0  501 -0.00000000000E+00  0.00000000000E+00  0.37031320064E+02  0.37031320064E+02  0.00000000000E+00 0.  1.
          2   -1    0    0  501    0  0.00000000000E+00 -0.00000000000E+00 -0.44208507659E+03  0.44208507659E+03  0.00000000000E+00 0. -1.
         25    2    1    2    0    0 -0.24425947223E+02 -0.46699038312E+02 -0.29643474032E+03  0.32599816676E+03  0.12499528944E+03 0.  0.
         23    2    1    2    0    0  0.24425947223E+02  0.46699038312E+02 -0.10861901620E+03  0.15311822990E+03  0.94178949710E+02 0.  0.
          5    1    3    3  502    0 -0.46583809473E+02  0.27809489140E+02 -0.15855456136E+03  0.16764563197E+03  0.47000000000E+01 0. -1.
         -5    1    3    3    0  502  0.22157862250E+02 -0.74508527451E+02 -0.13788017897E+03  0.15835253479E+03  0.47000000000E+01 0. -1.
          5    1    4    4  503    0 -0.23408069616E+02  0.54050405047E+02 -0.54817533710E+02  0.80600471531E+02  0.47000000000E+01 0. -1.
         -5    1    4    4    0  503  0.47834016840E+02 -0.73513667353E+01 -0.53801482494E+02  0.72517758366E+02  0.47000000000E+01 0.  1.
<mgrwt>
<rscale>  0 0.12811352E+03</rscale>
<asrwt>0</asrwt>
<pdfrwt beam="1">  1        2 0.68013084E-01 0.13565121E+03</pdfrwt>
<pdfrwt beam="2">  1       -2 0.56971265E-02 0.13565121E+03</pdfrwt>
<totfact> 0.10873438E+04</totfact>
</mgrwt>
</event>
<event>
 8    1  0.3551276E-004  0.1787211E+03  0.7546771E-02  0.1174746E+00
         -1   -1    0    0    0  501 -0.00000000000E+00  0.00000000000E+00  0.77736893534E+03  0.77736893534E+03  0.00000000000E+00 0. -1.
          1   -1    0    0  501    0  0.00000000000E+00 -0.00000000000E+00 -0.36374026878E+02  0.36374026878E+02  0.00000000000E+00 0.  1.
         25    2    1    2    0    0  0.12511968881E+03  0.25707495222E+02  0.41954060987E+03  0.45602143589E+03  0.12500165926E+03 0.  0.
         23    2    1    2    0    0 -0.12511968881E+03 -0.25707495222E+02  0.32145429860E+03  0.35772152633E+03  0.91192173340E+02 0.  0.
          5    1    4    4  502    0 -0.66595730847E+02  0.30619734846E+02  0.12337302179E+03  0.14358116880E+03  0.47000000000E+01 0. -1.
         -5    1    3    3    0  503  0.69484051157E+02  0.76337691320E+02  0.23943541567E+03  0.26078129680E+03  0.47000000000E+01 0.  1.
          5    1    3    3  503    0  0.55635637656E+02 -0.50630196099E+02  0.18010519420E+03  0.19524013909E+03  0.47000000000E+01 0.  1.
         -5    1    4    4    0  502 -0.58523957966E+02 -0.56327230068E+02  0.19808127681E+03  0.21414035754E+03  0.47000000000E+01 0.  1.
<mgrwt>
<rscale>  0 0.17300909E+03</rscale>
<asrwt>0</asrwt>
<pdfrwt beam="1">  1        1 0.55960047E-02 0.17872109E+03</pdfrwt>
<pdfrwt beam="2">  1       -1 0.11959521E+00 0.17872109E+03</pdfrwt>
<totfact> 0.94065598E+02</totfact>
</mgrwt>
</event>
<event>
 8    1  0.3551276E-004  0.2252097E+03  0.7546771E-02  0.1133303E+00
         -1   -1    0    0    0  501 -0.00000000000E+00  0.00000000000E+00  0.50037582396E+02  0.50037582396E+02  0.00000000000E+00 0.  1.
          1   -1    0    0  501    0  0.00000000000E+00 -0.00000000000E+00 -0.12784662140E+04  0.12784662140E+04  0.00000000000E+00 0. -1.
         25    2    1    2    0    0 -0.18588013279E+03  0.23295148071E+02 -0.97484918727E+03  0.10005250445E+04  0.12500135610E+03 0.  0.
         23    2    1    2    0    0  0.18588013279E+03 -0.23295148071E+02 -0.25357944428E+03  0.32797875186E+03  0.90407076169E+02 0.  0.
          5    1    3    3  502    0 -0.14807991288E+03  0.59137196297E+02 -0.85509469123E+03  0.86984704952E+03  0.47000000000E+01 0. -1.
         -5    1    3    3    0  502 -0.37800219910E+02 -0.35842048227E+02 -0.11975449604E+03  0.13067799497E+03  0.47000000000E+01 0. -1.
          5    1    4    4  503    0  0.15852219983E+03 -0.43888714837E+02 -0.23966846054E+03  0.29072077343E+03  0.47000000000E+01 0. -1.
         -5    1    4    4    0  503  0.27357932959E+02  0.20593566766E+02 -0.13910983746E+02  0.37257978430E+02  0.47000000000E+01 0.  1.
<mgrwt>
<rscale>  0 0.22078046E+03</rscale>
<asrwt>0</asrwt>
<pdfrwt beam="1">  1        1 0.19668708E+00 0.22520974E+03</pdfrwt>
<pdfrwt beam="2">  1       -1 0.76980909E-02 0.22520974E+03</pdfrwt>
<totfact> 0.92616430E+02</totfact>
</mgrwt>
</event>
<event>
 8    1  0.3551276E-004  0.1379796E+03  0.7546771E-02  0.1228390E+00
          1   -1    0    0  501    0  0.00000000000E+00  0.00000000000E+00  0.75628314839E+03  0.75628314839E+03  0.00000000000E+00 0. -1.
         -1   -1    0    0    0  501 -0.00000000000E+00 -0.00000000000E+00 -0.21866489111E+02  0.21866489111E+02  0.00000000000E+00 0.  1.
         25    2    1    2    0    0 -0.33214993353E+02  0.48069544811E+02  0.29048899806E+03  0.32159328422E+03  0.12499786214E+03 0.  0.
         23    2    1    2    0    0  0.33214993353E+02 -0.48069544811E+02  0.44392766122E+03  0.45655635328E+03  0.89207726147E+02 0.  0.
          5    1    4    4  502    0  0.16057888214E+02 -0.59592924625E+02  0.42022520172E+03  0.42475932315E+03  0.47000000000E+01 0. -1.
         -5    1    4    4    0  502  0.17157105139E+02  0.11523379814E+02  0.23702459500E+02  0.31797030136E+02  0.47000000000E+01 0.  1.
          5    1    3    3  503    0  0.11607304685E+02  0.72905145036E+02  0.10068668978E+03  0.12493914196E+03  0.47000000000E+01 0.  1.
         -5    1    3    3    0  503 -0.44822298038E+02 -0.24835600225E+02  0.18980230827E+03  0.19665414225E+03  0.47000000000E+01 0.  1.
<mgrwt>
<rscale>  0 0.12937208E+03</rscale>
<asrwt>0</asrwt>
<pdfrwt beam="1">  1        1 0.11635123E+00 0.13797965E+03</pdfrwt>
<pdfrwt beam="2">  1       -1 0.33640758E-02 0.13797965E+03</pdfrwt>
<totfact> 0.77099067E+03</totfact>
</mgrwt>
</event>
<event>
 8    1  0.3551276E-004  0.1397772E+03  0.7546771E-02  0.1224853E+00
          4   -1    0    0  501    0  0.00000000000E+00  0.00000000000E+00  0.14113975406E+03  0.14113975406E+03  0.00000000000E+00 0. -1.
         -4   -1    0    0    0  501 -0.00000000000E+00 -0.00000000000E+00 -0.12087027757E+03  0.12087027757E+03  0.00000000000E+00 0.  1.
         25    2    1    2    0    0 -0.38691089635E+01  0.62466534804E+02  0.48689984172E+02  0.14801478734E+03  0.12498249773E+03 0.  0.
         23    2    1    2    0    0  0.38691089635E+01 -0.62466534804E+02 -0.28420507681E+02  0.11399524428E+03  0.90940378753E+02 0.  0.
          5    1    3    3  502    0  0.41582232065E+02  0.56102717180E+02 -0.12790332958E+02  0.71149697931E+02  0.47000000000E+01 0. -1.
         -5    1    3    3    0  502 -0.45451341029E+02  0.63638176240E+01  0.61480317130E+02  0.76865089413E+02  0.47000000000E+01 0. -1.
          5    1    4    4  503    0 -0.89242785194E+01 -0.43625035458E+02  0.28110292463E+02  0.52868374367E+02  0.47000000000E+01 0. -1.
         -5    1    4    4    0  503  0.12793387483E+02 -0.18841499346E+02 -0.56530800144E+02  0.61126869916E+02  0.47000000000E+01 0.  1.
<mgrwt>
<rscale>  0 0.13176958E+03</rscale>
<asrwt>0</asrwt>
<pdfrwt beam="1">  1        4 0.21713808E-01 0.13977719E+03</pdfrwt>
<pdfrwt beam="2">  1       -4 0.18595427E-01 0.13977719E+03</pdfrwt>
<totfact> 0.83111864E+02</totfact>
</mgrwt>
</event>
<event>
 8    1  0.3551276E-004  0.1898986E+03  0.7546771E-02  0.1163333E+00
          2   -1    0    0  501    0  0.00000000000E+00  0.00000000000E+00  0.12187783706E+04  0.12187783706E+04  0.00000000000E+00 0. -1.
         -2   -1    0    0    0  501 -0.00000000000E+00 -0.00000000000E+00 -0.26559355130E+02  0.26559355130E+02  0.00000000000E+00 0.  1.
         25    2    1    2    0    0  0.51871978371E+02  0.13321317902E+03  0.63037031350E+03  0.65835265912E+03  0.12500015366E+03 0.  0.
         23    2    1    2    0    0 -0.51871978371E+02 -0.13321317902E+03  0.56184870196E+03  0.58698506661E+03  0.91875194255E+02 0.  0.
          5    1    3    3  502    0  0.49995405253E+02 -0.32598637831E+01  0.12229741838E+03  0.13224566459E+03  0.47000000000E+01 0.  1.
         -5    1    4    4    0  503 -0.12747002448E+02 -0.10883161743E+03  0.26910720478E+03  0.29059866601E+03  0.47000000000E+01 0.  1.
          5    1    4    4  503    0 -0.39124975924E+02 -0.24381561599E+02  0.29274149718E+03  0.29638640060E+03  0.47000000000E+01 0. -1.
         -5    1    3    3    0  502  0.18765731183E+01  0.13647304281E+03  0.50807289512E+03  0.52610699453E+03  0.47000000000E+01 0.  1.
<mgrwt>
<rscale>  0 0.18469764E+03</rscale>
<asrwt>0</asrwt>
<pdfrwt beam="1">  1        2 0.18750432E+00 0.18989864E+03</pdfrwt>
<pdfrwt beam="2">  1       -2 0.40860556E-02 0.18989864E+03</pdfrwt>
<totfact> 0.51379345E+03</totfact>
</mgrwt>
</event>
<event>
 8    1  0.3551276E-004  0.1828013E+03  0.7546771E-02  0.1170602E+00
          2   -1    0    0  501    0  0.00000000000E+00  0.00000000000E+00  0.13746253658E+04  0.13746253658E+04  0.00000000000E+00 0. -1.
         -2   -1    0    0    0  501 -0.00000000000E+00 -0.00000000000E+00 -0.21777150056E+02  0.21777150056E+02  0.00000000000E+00 0.  1.
         25    2    1    2    0    0  0.78039636413E+02  0.10817140977E+03  0.79430793349E+03  0.81507141353E+03  0.12500030881E+03 0.  0.
         23    2    1    2    0    0 -0.78039636413E+02 -0.10817140977E+03  0.55854028227E+03  0.58133110234E+03  0.90484058774E+02 0.  0.
          5    1    4    4  502    0 -0.11616619477E+02 -0.76437257564E+02  0.38582598370E+03  0.39352430660E+03  0.47000000000E+01 0. -1.
         -5    1    3    3    0  503 -0.23815404594E+02  0.54092391918E+02  0.16647346093E+03  0.17671633641E+03  0.47000000000E+01 0.  1.
          5    1    3    3  503    0  0.10185504101E+03  0.54079017850E+02  0.62783447256E+03  0.63835507712E+03  0.47000000000E+01 0.  1.
         -5    1    4    4    0  502 -0.66423016936E+02 -0.31734152205E+02  0.17271429857E+03  0.18780679574E+03  0.47000000000E+01 0.  1.
<mgrwt>
<rscale>  0 0.17713788E+03</rscale>
<asrwt>0</asrwt>
<pdfrwt beam="1">  1        2 0.21148076E+00 0.18280130E+03</pdfrwt>
<pdfrwt beam="2">  1       -2 0.33503318E-02 0.18280130E+03</pdfrwt>
<totfact> 0.56720160E+03</totfact>
</mgrwt>
</event>
<event>
 8    1  0.3551276E-004  0.1387690E+03  0.7546771E-02  0.1222545E+00
         -1   -1    0    0    0  501 -0.00000000000E+00  0.00000000000E+00  0.99380278889E+02  0.99380278889E+02  0.00000000000E+00 0.  1.
          1   -1    0    0  501    0  0.00000000000E+00 -0.00000000000E+00 -0.23443479725E+03  0.23443479725E+03  0.00000000000E+00 0. -1.
         25    2    1    2    0    0 -0.28237267451E+02  0.53234729789E+02  0.18419936612E+02  0.13998616583E+03  0.12500221130E+03 0.  0.
         23    2    1    2    0    0  0.28237267451E+02 -0.53234729789E+02 -0.15347445497E+03  0.19382891030E+03  0.10190170957E+03 0.  0.
          5    1    4    4  502    0  0.45920744131E+02 -0.83854527685E+01 -0.13337523790E+03  0.14138626045E+03  0.47000000000E+01 0. -1.
         -5    1    3    3    0  503 -0.77111242728E+02  0.21118132992E+02  0.98137411995E+01  0.80687786017E+02  0.47000000000E+01 0. -1.
          5    1    3    3  503    0  0.48873975276E+02  0.32116596798E+02  0.86061954127E+01  0.59298379815E+02  0.47000000000E+01 0. -1.
         -5    1    4    4    0  502 -0.17683476679E+02 -0.44849277021E+02 -0.20099217071E+02  0.52442649853E+02  0.47000000000E+01 0.  1.
<mgrwt>
<rscale>  0 0.13336577E+03</rscale>
<asrwt>0</asrwt>
<pdfrwt beam="1">  1        1 0.36066892E-01 0.13876899E+03</pdfrwt>
<pdfrwt beam="2">  1       -1 0.15289274E-01 0.13876899E+03</pdfrwt>
<totfact> 0.36050957E+03</totfact>
</mgrwt>
</event>
<event>
 8    1  0.3551276E-004  0.1664138E+03  0.7546771E-02  0.1188368E+00
         -2   -1    0    0    0  501 -0.00000000000E+00  0.00000000000E+00  0.31214382855E+02  0.31214382855E+02  0.00000000000E+00 0.  1.
          2   -1    0    0  501    0  0.00000000000E+00 -0.00000000000E+00 -0.80549745357E+03  0.80549745357E+03  0.00000000000E+00 0. -1.
         25    2    1    2    0    0  0.67150430587E+02  0.86922773006E+02 -0.50482339500E+03  0.53154511313E+03  0.12501519253E+03 0.  0.
         23    2    1    2    0    0 -0.67150430587E+02 -0.86922773006E+02 -0.26945967571E+03  0.30516672329E+03  0.91942717887E+02 0.  0.
          5    1    3    3  502    0  0.11035015536E+02  0.47639969245E+02 -0.44992403351E+02  0.66616398858E+02  0.47000000000E+01 0.  1.
         -5    1    4    4    0  503 -0.10463579083E+01 -0.55180619078E+02 -0.53342814544E+02  0.76899554291E+02  0.47000000000E+01 0.  1.
          5    1    4    4  503    0 -0.66104072678E+02 -0.31742153928E+02 -0.21611686117E+03  0.22826716900E+03  0.47000000000E+01 0. -1.
         -5    1    3    3    0  502  0.56115415051E+02  0.39282803761E+02 -0.45983099165E+03  0.46492871427E+03  0.47000000000E+01 0.  1.
<mgrwt>
<rscale>  0 0.16029110E+03</rscale>
<asrwt>0</asrwt>
<pdfrwt beam="1">  1        2 0.12392269E+00 0.16641378E+03</pdfrwt>
<pdfrwt beam="2">  1       -2 0.48022126E-02 0.16641378E+03</pdfrwt>
<totfact> 0.71449600E+03</totfact>
</mgrwt>
</event>
<event>
 8    1  0.3551276E-004  0.1264568E+03  0.7546771E-02  0.1247829E+00
         -4   -1    0    0    0  501 -0.00000000000E+00  0.00000000000E+00  0.28827057359E+03  0.28827057359E+03  0.00000000000E+00 0.  1.
          4   -1    0    0  501    0  0.00000000000E+00 -0.00000000000E+00 -0.42016924530E+02  0.42016924530E+02  0.00000000000E+00 0. -1.
         25    2    1    2    0    0 -0.17575544283E+02  0.75746929181E+01  0.15185742691E+03  0.19761580858E+03  0.12500021585E+03 0.  0.
         23    2    1    2    0    0  0.17575544283E+02 -0.75746929181E+01  0.94396222151E+02  0.13267168954E+03  0.91240641825E+02 0.  0.
          5    1    4    4  502    0 -0.94301073714E+01  0.34519741948E+02  0.65327169270E+02  0.74634231784E+02  0.47000000000E+01 0. -1.
         -5    1    4    4    0  502  0.27005651655E+02 -0.42094434866E+02  0.29069052881E+02  0.58037457761E+02  0.47000000000E+01 0.  1.
          5    1    3    3  503    0 -0.38623050426E+02 -0.48121227245E+02  0.10426873251E+03  0.12124954068E+03  0.47000000000E+01 0. -1.
         -5    1    3    3    0  503  0.21047506143E+02  0.55695920164E+02  0.47588694400E+02  0.76366267896E+02  0.47000000000E+01 0. -1.
<mgrwt>
<rscale>  0 0.11717670E+03</rscale>
<asrwt>0</asrwt>
<pdfrwt beam="1">  1        4 0.64641424E-02 0.12645683E+03</pdfrwt>
<pdfrwt beam="2">  1       -4 0.44349318E-01 0.12645683E+03</pdfrwt>
<totfact> 0.12629436E+03</totfact>
</mgrwt>
</event>
<event>
 8    1  0.3551276E-004  0.1425861E+03  0.7546771E-02  0.1220284E+00
         -1   -1    0    0    0  501 -0.00000000000E+00  0.00000000000E+00  0.56596033000E+03  0.56596033000E+03  0.00000000000E+00 0.  1.
          1   -1    0    0  501    0  0.00000000000E+00 -0.00000000000E+00 -0.30100961187E+02  0.30100961187E+02  0.00000000000E+00 0. -1.
         25    2    1    2    0    0  0.27418042932E+02  0.62883046403E+02  0.24450193899E+03  0.28304060879E+03  0.12499904580E+03 0.  0.
         23    2    1    2    0    0 -0.27418042932E+02 -0.62883046403E+02  0.29135742983E+03  0.31302068240E+03  0.91579304926E+02 0.  0.
          5    1    4    4  502    0 -0.54512394401E+02 -0.16384815792E+02  0.11227215026E+03  0.12596503109E+03  0.47000000000E+01 0. -1.
         -5    1    4    4    0  502  0.27094351469E+02 -0.46498230612E+02  0.17908527956E+03  0.18705565131E+03  0.47000000000E+01 0.  1.
          5    1    3    3  503    0  0.42455024838E+02  0.39191300665E+02  0.27465015597E+02  0.64146740085E+02  0.47000000000E+01 0.  1.
         -5    1    3    3    0  503 -0.15036981906E+02  0.23691745738E+02  0.21703692339E+03  0.21889386870E+03  0.47000000000E+01 0.  1.
<mgrwt>
<rscale>  0 0.13495435E+03</rscale>
<asrwt>0</asrwt>
<pdfrwt beam="1">  1        1 0.46309175E-02 0.14258607E+03</pdfrwt>
<pdfrwt beam="2">  1       -1 0.87070812E-01 0.14258607E+03</pdfrwt>
<totfact> 0.24510057E+03</totfact>
</mgrwt>
</event>
<event>
 8    1  0.3551276E-004  0.1526374E+03  0.7546771E-02  0.1205657E+00
          2   -1    0    0  501    0  0.00000000000E+00  0.00000000000E+00  0.71552433541E+03  0.71552433541E+03  0.00000000000E+00 0. -1.
         -2   -1    0    0    0  501 -0.00000000000E+00 -0.00000000000E+00 -0.27964715761E+02  0.27964715761E+02  0.00000000000E+00 0.  1.
         25    2    1    2    0    0 -0.61311268024E+02 -0.62558472754E+02  0.42802615974E+03  0.45442775220E+03  0.12500221777E+03 0.  0.
         23    2    1    2    0    0  0.61311268024E+02  0.62558472754E+02  0.25953345992E+03  0.28906129898E+03  0.92337336167E+02 0.  0.
          5    1    4    4  502    0  0.18340866969E+02  0.46240259959E+02  0.22729364357E+03  0.23272094760E+03  0.47000000000E+01 0. -1.
         -5    1    4    4    0  502  0.42970401054E+02  0.16318212795E+02  0.32239816341E+02  0.56340351377E+02  0.47000000000E+01 0.  1.
          5    1    3    3  503    0  0.33132087888E+02  0.47685384110E+01  0.64532944009E+02  0.72849605825E+02  0.47000000000E+01 0. -1.
         -5    1    3    3    0  503 -0.94443355912E+02 -0.67327011165E+02  0.36349321573E+03  0.38157814637E+03  0.47000000000E+01 0. -1.
<mgrwt>
<rscale>  0 0.14585833E+03</rscale>
<asrwt>0</asrwt>
<pdfrwt beam="1">  1        2 0.11008065E+00 0.15263744E+03</pdfrwt>
<pdfrwt beam="2">  1       -2 0.43022645E-02 0.15263744E+03</pdfrwt>
<totfact> 0.97014844E+03</totfact>
</mgrwt>
</event>
<event>
 8    1  0.3551276E-004  0.1312551E+03  0.7546771E-02  0.1237126E+00
          1   -1    0    0  501    0  0.00000000000E+00  0.00000000000E+00  0.57260544223E+02  0.57260544223E+02  0.00000000000E+00 0. -1.
         -1   -1    0    0    0  501 -0.00000000000E+00 -0.00000000000E+00 -0.24410640289E+03  0.24410640289E+03  0.00000000000E+00 0.  1.
         25    2    1    2    0    0  0.37141727184E+02  0.14947235668E+02 -0.12209667944E+03  0.17926379707E+03  0.12499992822E+03 0.  0.
         23    2    1    2    0    0 -0.37141727184E+02 -0.14947235668E+02 -0.64749179225E+02  0.12210315005E+03  0.95466199718E+02 0.  0.
          5    1    4    4  502    0 -0.14192629481E+02 -0.35095669678E+02  0.11490295237E+02  0.39840351986E+02  0.47000000000E+01 0. -1.
         -5    1    4    4    0  502 -0.22949097704E+02  0.20148434010E+02 -0.76239474462E+02  0.82262798060E+02  0.47000000000E+01 0.  1.
          5    1    3    3  503    0  0.13743037346E+02 -0.50426954749E+02 -0.86300586253E+02  0.10100311890E+03  0.47000000000E+01 0. -1.
         -5    1    3    3    0  503  0.23398689839E+02  0.65374190418E+02 -0.35796093188E+02  0.78260678163E+02  0.47000000000E+01 0. -1.
<mgrwt>
<rscale>  0 0.12369296E+03</rscale>
<asrwt>0</asrwt>
<pdfrwt beam="1">  1        1 0.88093144E-02 0.13125513E+03</pdfrwt>
<pdfrwt beam="2">  1       -1 0.37554832E-01 0.13125513E+03</pdfrwt>
<totfact> 0.50106935E+03</totfact>
</mgrwt>
</event>
<event>
 8    1  0.3551276E-004  0.2064682E+03  0.7546771E-02  0.1148708E+00
          1   -1    0    0  501    0  0.00000000000E+00  0.00000000000E+00  0.11341112840E+04  0.11341112840E+04  0.00000000000E+00 0. -1.
         -1   -1    0    0    0  501 -0.00000000000E+00 -0.00000000000E+00 -0.34008824400E+02  0.34008824400E+02  0.00000000000E+00 0.  1.
         25    2    1    2    0    0  0.33398275215E+02  0.16089889487E+03  0.57151870903E+03  0.60766992660E+03  0.12500082307E+03 0.  0.
         23    2    1    2    0    0 -0.33398275215E+02 -0.16089889487E+03  0.52858375053E+03  0.56045018175E+03  0.87748081162E+02 0.  0.
          5    1    4    4  502    0  0.32813105030E+01 -0.53803086568E+02  0.30538196552E+03  0.31013831429E+03  0.47000000000E+01 0. -1.
         -5    1    4    4    0  502 -0.36679585718E+02 -0.10709580830E+03  0.22320178500E+03  0.25031186746E+03  0.47000000000E+01 0.  1.
          5    1    3    3  503    0  0.38012655572E+02  0.73541721944E+02  0.10914164727E+03  0.13706690344E+03  0.47000000000E+01 0.  1.
         -5    1    3    3    0  503 -0.46143803576E+01  0.87357172928E+02  0.46237706176E+03  0.47060302316E+03  0.47000000000E+01 0.  1.
<mgrwt>
<rscale>  0 0.20122720E+03</rscale>
<asrwt>0</asrwt>
<pdfrwt beam="1">  1        1 0.17447863E+00 0.20646817E+03</pdfrwt>
<pdfrwt beam="2">  1       -1 0.52321277E-02 0.20646817E+03</pdfrwt>
<totfact> 0.20914514E+03</totfact>
</mgrwt>
</event>
<event>
 8    1  0.3551276E-004  0.1562985E+03  0.7546771E-02  0.1201265E+00
         -4   -1    0    0    0  501 -0.00000000000E+00  0.00000000000E+00  0.52070848427E+02  0.52070848427E+02  0.00000000000E+00 0.  1.
          4   -1    0    0  501    0  0.00000000000E+00 -0.00000000000E+00 -0.43756543590E+03  0.43756543590E+03  0.00000000000E+00 0. -1.
         25    2    1    2    0    0  0.12889302750E+02 -0.92947517200E+02 -0.28506570229E+03  0.32510256680E+03  0.12499539688E+03 0.  0.
         23    2    1    2    0    0 -0.12889302750E+02  0.92947517200E+02 -0.10042888519E+03  0.16453371753E+03  0.90443397463E+02 0.  0.
          5    1    4    4  502    0 -0.44499305109E+02  0.33779945743E+02 -0.72668165987E+02  0.91782488730E+02  0.47000000000E+01 0. -1.
         -5    1    4    4    0  502  0.31610002359E+02  0.59167571458E+02 -0.27760719204E+02  0.72751228801E+02  0.47000000000E+01 0.  1.
          5    1    3    3  503    0 -0.10349347779E+02  0.23843831283E+02 -0.16143148120E+02  0.30956881641E+02  0.47000000000E+01 0.  1.
         -5    1    3    3    0  503  0.23238650528E+02 -0.11679134848E+03 -0.26892255417E+03  0.29414568516E+03  0.47000000000E+01 0.  1.
<mgrwt>
<rscale>  0 0.14935699E+03</rscale>
<asrwt>0</asrwt>
<pdfrwt beam="1">  1        4 0.67317760E-01 0.15629851E+03</pdfrwt>
<pdfrwt beam="2">  1       -4 0.80108997E-02 0.15629851E+03</pdfrwt>
<totfact> 0.39019599E+02</totfact>
</mgrwt>
</event>
<event>
 8    1  0.3551276E-004  0.1747377E+03  0.7546771E-02  0.1179689E+00
          2   -1    0    0  501    0  0.00000000000E+00  0.00000000000E+00  0.40081621211E+03  0.40081621211E+03  0.00000000000E+00 0. -1.
         -2   -1    0    0    0  501 -0.00000000000E+00 -0.00000000000E+00 -0.66908689166E+02  0.66908689166E+02  0.00000000000E+00 0.  1.
         25    2    1    2    0    0  0.23549668797E+02 -0.11980707530E+03  0.15003203774E+03  0.23031038157E+03  0.12499974927E+03 0.  0.
         23    2    1    2    0    0 -0.23549668797E+02  0.11980707530E+03  0.18387548521E+03  0.23741451971E+03  0.87447915444E+02 0.  0.
          5    1    4    4  502    0  0.86075436467E+01  0.80731897104E+02  0.53140338642E+02  0.97147900691E+02  0.47000000000E+01 0. -1.
         -5    1    4    4    0  502 -0.32157212444E+02  0.39075178200E+02  0.13073514657E+03  0.14026661902E+03  0.47000000000E+01 0.  1.
          5    1    3    3  503    0  0.60256768049E+02 -0.11552816060E+03  0.85877059089E+02  0.15612364736E+03  0.47000000000E+01 0. -1.
         -5    1    3    3    0  503 -0.36707099252E+02 -0.42789147006E+01  0.64154978649E+02  0.74186734205E+02  0.47000000000E+01 0. -1.
<mgrwt>
<rscale>  0 0.16824664E+03</rscale>
<asrwt>0</asrwt>
<pdfrwt beam="1">  1        2 0.61664031E-01 0.17473769E+03</pdfrwt>
<pdfrwt beam="2">  1       -2 0.10293645E-01 0.17473769E+03</pdfrwt>
<totfact> 0.49181608E+03</totfact>
</mgrwt>
</event>
<event>
 8    1  0.3551276E-004  0.1537897E+03  0.7546771E-02  0.1204598E+00
         -1   -1    0    0    0  501 -0.00000000000E+00  0.00000000000E+00  0.12604731838E+02  0.12604731838E+02  0.00000000000E+00 0.  1.
          1   -1    0    0  501    0  0.00000000000E+00 -0.00000000000E+00 -0.15687837456E+04  0.15687837456E+04  0.00000000000E+00 0. -1.
         25    2    1    2    0    0  0.32724202428E+02  0.83399435883E+02 -0.87673259763E+03  0.89011870312E+03  0.12499967432E+03 0.  0.
         23    2    1    2    0    0 -0.32724202428E+02 -0.83399435883E+02 -0.67944641618E+03  0.69126977436E+03  0.90444066436E+02 0.  0.
          5    1    4    4  502    0 -0.46141399405E+02 -0.50656853834E+02 -0.60301405302E+03  0.60691283041E+03  0.47000000000E+01 0. -1.
         -5    1    4    4    0  502  0.13417196977E+02 -0.32742582048E+02 -0.76432363159E+02  0.84356943947E+02  0.47000000000E+01 0.  1.
          5    1    3    3  503    0 -0.24576650971E+02  0.91971246445E+02 -0.51514451338E+03  0.52388804301E+03  0.47000000000E+01 0. -1.
         -5    1    3    3    0  503  0.57300853399E+02 -0.85718105623E+01 -0.36158808424E+03  0.36623066011E+03  0.47000000000E+01 0. -1.
<mgrwt>
<rscale>  0 0.14669199E+03</rscale>
<asrwt>0</asrwt>
<pdfrwt beam="1">  1        1 0.24135146E+00 0.15378965E+03</pdfrwt>
<pdfrwt beam="2">  1       -1 0.19391886E-02 0.15378965E+03</pdfrwt>
<totfact> 0.45712452E+03</totfact>
</mgrwt>
</event>
<event>
 8    1  0.3551276E-004  0.1325010E+03  0.7546771E-02  0.1234586E+00
         -4   -1    0    0    0  501 -0.00000000000E+00  0.00000000000E+00  0.62646006976E+02  0.62646006976E+02  0.00000000000E+00 0.  1.
          4   -1    0    0  501    0  0.00000000000E+00 -0.00000000000E+00 -0.26017889712E+03  0.26017889712E+03  0.00000000000E+00 0. -1.
         25    2    1    2    0    0  0.43556825618E+02  0.57754193131E+01 -0.51004130399E+02  0.14197861856E+03  0.12500381708E+03 0.  0.
         23    2    1    2    0    0 -0.43556825618E+02 -0.57754193131E+01 -0.14652875974E+03  0.18084628553E+03  0.96458016939E+02 0.  0.
          5    1    4    4  502    0 -0.17107489623E+01 -0.46874892941E+02 -0.66480921041E+02  0.81498374908E+02  0.47000000000E+01 0. -1.
         -5    1    3    3    0  503 -0.87262257460E+01  0.56492887033E+02 -0.35197536516E+02  0.67294501097E+02  0.47000000000E+01 0. -1.
          5    1    3    3  503    0  0.52283051364E+02 -0.50717467720E+02 -0.15806593883E+02  0.74684117468E+02  0.47000000000E+01 0. -1.
         -5    1    4    4    0  502 -0.41846076656E+02  0.41099473628E+02 -0.80047838703E+02  0.99347910622E+02  0.47000000000E+01 0.  1.
<mgrwt>
<rscale>  0 0.12530964E+03</rscale>
<asrwt>0</asrwt>
<pdfrwt beam="1">  1        4 0.40027522E-01 0.13250097E+03</pdfrwt>
<pdfrwt beam="2">  1       -4 0.96378473E-02 0.13250097E+03</pdfrwt>
<totfact> 0.80745275E+02</totfact>
</mgrwt>
</event>
<event>
 8    1  0.3551276E-004  0.1466888E+03  0.7546771E-02  0.1214350E+00
          1   -1    0    0  501    0  0.00000000000E+00  0.00000000000E+00  0.18596086625E+02  0.18596086625E+02  0.00000000000E+00 0. -1.
         -1   -1    0    0    0  501 -0.00000000000E+00 -0.00000000000E+00 -0.95411238683E+03  0.95411238683E+03  0.00000000000E+00 0.  1.
         25    2    1    2    0    0  0.76388557440E+02 -0.75755828718E+01 -0.54894248847E+03  0.56820371101E+03  0.12500000156E+03 0.  0.
         23    2    1    2    0    0 -0.76388557440E+02  0.75755828718E+01 -0.38657381174E+03  0.40450476245E+03  0.91061461451E+02 0.  0.
          5    1    4    4  502    0 -0.32210150480E+02 -0.41391873274E+02 -0.15669940784E+03  0.16531054227E+03  0.47000000000E+01 0. -1.
         -5    1    4    4    0  502 -0.44178406961E+02  0.48967456146E+02 -0.22987440390E+03  0.23919422018E+03  0.47000000000E+01 0.  1.
          5    1    3    3  503    0  0.10362829163E+03 -0.25127345401E+02 -0.48207551759E+03  0.49375003896E+03  0.47000000000E+01 0. -1.
         -5    1    3    3    0  503 -0.27239734189E+02  0.17551762529E+02 -0.66866970883E+02  0.74453672049E+02  0.47000000000E+01 0. -1.
<mgrwt>
<rscale>  0 0.13924370E+03</rscale>
<asrwt>0</asrwt>
<pdfrwt beam="1">  1        1 0.28609358E-02 0.14668879E+03</pdfrwt>
<pdfrwt beam="2">  1       -1 0.14678655E+00 0.14668879E+03</pdfrwt>
<totfact> 0.14271940E+03</totfact>
</mgrwt>
</event>
<event>
 8    1  0.3551276E-004  0.1297047E+03  0.7546771E-02  0.1241431E+00
         -2   -1    0    0    0  501 -0.00000000000E+00  0.00000000000E+00  0.44208380917E+02  0.44208380917E+02  0.00000000000E+00 0.  1.
          2   -1    0    0  501    0  0.00000000000E+00 -0.00000000000E+00 -0.33005138742E+03  0.33005138742E+03  0.00000000000E+00 0. -1.
         25    2    1    2    0    0  0.28264843461E+02  0.19928312413E+02 -0.22182398235E+03  0.25696146153E+03  0.12500909788E+03 0.  0.
         23    2    1    2    0    0 -0.28264843461E+02 -0.19928312413E+02 -0.64019024153E+02  0.11729830681E+03  0.92002273423E+02 0.  0.
          5    1    4    4  502    0  0.10519144562E+02 -0.36927654866E+02 -0.63894677209E+02  0.74692194183E+02  0.47000000000E+01 0. -1.
         -5    1    4    4    0  502 -0.38783988023E+02  0.16999342453E+02 -0.12434694371E+00  0.42606112624E+02  0.47000000000E+01 0.  1.
          5    1    3    3  503    0  0.42989920895E+02 -0.16635188634E+02 -0.18653129350E+02  0.49948894222E+02  0.47000000000E+01 0.  1.
         -5    1    3    3    0  503 -0.14725077434E+02  0.36563501048E+02 -0.20317085300E+03  0.20701256730E+03  0.47000000000E+01 0.  1.
<mgrwt>
<rscale>  0 0.12101565E+03</rscale>
<asrwt>0</asrwt>
<pdfrwt beam="1">  1        2 0.50777139E-01 0.12970472E+03</pdfrwt>
<pdfrwt beam="2">  1       -2 0.68012890E-02 0.12970472E+03</pdfrwt>
<totfact> 0.11308750E+04</totfact>
</mgrwt>
</event>
<event>
 8    1  0.3551276E-004  0.1753294E+03  0.7546771E-02  0.1178420E+00
         -1   -1    0    0    0  501 -0.00000000000E+00  0.00000000000E+00  0.17571360462E+02  0.17571360462E+02  0.00000000000E+00 0.  1.
          1   -1    0    0  501    0  0.00000000000E+00 -0.00000000000E+00 -0.16834779582E+04  0.16834779582E+04  0.00000000000E+00 0. -1.
         25    2    1    2    0    0 -0.30247819618E+02  0.11918094779E+03 -0.11379087331E+04  0.11513369062E+04  0.12498543106E+03 0.  0.
         23    2    1    2    0    0  0.30247819618E+02 -0.11918094779E+03 -0.52799786467E+03  0.54971241242E+03  0.91010781583E+02 0.  0.
          5    1    3    3  502    0 -0.54337893956E+02  0.70611361377E+01 -0.24593116729E+03  0.25200534797E+03  0.47000000000E+01 0.  1.
         -5    1    4    4    0  503  0.19606299388E+02 -0.32364073401E+02 -0.45668857773E+02  0.59494325722E+02  0.47000000000E+01 0.  1.
          5    1    4    4  503    0  0.10641520230E+02 -0.86816874386E+02 -0.48232900690E+03  0.49021808670E+03  0.47000000000E+01 0. -1.
         -5    1    3    3    0  502  0.24090074338E+02  0.11211981165E+03 -0.89197756578E+03  0.89933155827E+03  0.47000000000E+01 0.  1.
<mgrwt>
<rscale>  0 0.16945235E+03</rscale>
<asrwt>0</asrwt>
<pdfrwt beam="1">  1        1 0.25899668E+00 0.17532937E+03</pdfrwt>
<pdfrwt beam="2">  1       -1 0.27032855E-02 0.17532937E+03</pdfrwt>
<totfact> 0.23827207E+03</totfact>
</mgrwt>
</event>
<event>
 8    1  0.3551276E-004  0.1250471E+03  0.7546771E-02  0.1249513E+00
         -1   -1    0    0    0  501 -0.00000000000E+00  0.00000000000E+00  0.62265803231E+02  0.62265803231E+02  0.00000000000E+00 0.  1.
          1   -1    0    0  501    0  0.00000000000E+00 -0.00000000000E+00 -0.19127695202E+03  0.19127695202E+03  0.00000000000E+00 0. -1.
         25    2    1    2    0    0 -0.35645737888E+01  0.12095178382E+01 -0.73584415938E+02  0.14509113443E+03  0.12499040724E+03 0.  0.
         23    2    1    2    0    0  0.35645737888E+01 -0.12095178382E+01 -0.55426732853E+02  0.10845162082E+03  0.93142161364E+02 0.  0.
          5    1    3    3  502    0 -0.26226507405E+02  0.24349102123E+02  0.23210570098E+02  0.42913040316E+02  0.47000000000E+01 0.  1.
         -5    1    3    3    0  502  0.22661933617E+02 -0.23139584285E+02 -0.96794986035E+02  0.10217809412E+03  0.47000000000E+01 0.  1.
          5    1    4    4  503    0  0.22136450810E+02  0.40964479945E+02 -0.25376783885E+02  0.53237038159E+02  0.47000000000E+01 0.  1.
         -5    1    4    4    0  503 -0.18571877021E+02 -0.42173997784E+02 -0.30049948968E+02  0.55214582658E+02  0.47000000000E+01 0. -1.
<mgrwt>
<rscale>  0 0.11619310E+03</rscale>
<asrwt>0</asrwt>
<pdfrwt beam="1">  1        1 0.29427223E-01 0.12504708E+03</pdfrwt>
<pdfrwt beam="2">  1       -1 0.95793544E-02 0.12504708E+03</pdfrwt>
<totfact> 0.94814260E+03</totfact>
</mgrwt>
</event>
<event>
 8    1  0.3551276E-004  0.1454192E+03  0.7546771E-02  0.1215987E+00
         -3   -1    0    0    0  501 -0.00000000000E+00  0.00000000000E+00  0.32857558980E+03  0.32857558980E+03  0.00000000000E+00 0.  1.
          3   -1    0    0  501    0  0.00000000000E+00 -0.00000000000E+00 -0.54498732260E+02  0.54498732260E+02  0.00000000000E+00 0. -1.
         25    2    1    2    0    0 -0.61872200798E+02 -0.41200948626E+02  0.18416703421E+03  0.23465769950E+03  0.12498420718E+03 0.  0.
         23    2    1    2    0    0  0.61872200798E+02  0.41200948626E+02  0.89909823325E+02  0.14841662256E+03  0.91749823555E+02 0.  0.
          5    1    3    3  502    0  0.23790328586E+02  0.19690847225E+02  0.13194357006E+02  0.33910031782E+02  0.47000000000E+01 0. -1.
         -5    1    4    4    0  503  0.58469790196E+02  0.66042229080E+02  0.84703560803E+02  0.12238086288E+03  0.47000000000E+01 0.  1.
          5    1    4    4  503    0  0.34024106022E+01 -0.24841280453E+02  0.52062625220E+01  0.26035759676E+02  0.47000000000E+01 0. -1.
         -5    1    3    3    0  502 -0.85662529384E+02 -0.60891795851E+02  0.17097267721E+03  0.20074766772E+03  0.47000000000E+01 0. -1.
<mgrwt>
<rscale>  0 0.13804275E+03</rscale>
<asrwt>0</asrwt>
<pdfrwt beam="1">  1        3 0.83844206E-02 0.14541919E+03</pdfrwt>
<pdfrwt beam="2">  1       -3 0.50550089E-01 0.14541919E+03</pdfrwt>
<totfact> 0.90046787E+02</totfact>
</mgrwt>
</event>
<event>
 8    1  0.3551276E-004  0.1325526E+03  0.7546771E-02  0.1235605E+00
          2   -1    0    0  501    0  0.00000000000E+00  0.00000000000E+00  0.50674075875E+02  0.50674075875E+02  0.00000000000E+00 0. -1.
         -2   -1    0    0    0  501 -0.00000000000E+00 -0.00000000000E+00 -0.27614670088E+03  0.27614670088E+03  0.00000000000E+00 0.  1.
         25    2    1    2    0    0 -0.18882045593E+02 -0.39850016639E+02 -0.11763269514E+03  0.17722202403E+03  0.12500255743E+03 0.  0.
         23    2    1    2    0    0  0.18882045593E+02  0.39850016639E+02 -0.10783992986E+03  0.14959875272E+03  0.93839122283E+02 0.  0.
          5    1    4    4  502    0 -0.24986477976E+02  0.10275135487E+02  0.20976071335E+01  0.27502589816E+02  0.47000000000E+01 0. -1.
         -5    1    3    3    0  503  0.52016092928E+02 -0.19179105699E+02 -0.32545313026E+02  0.64457733585E+02  0.47000000000E+01 0.  1.
          5    1    3    3  503    0 -0.70898138522E+02 -0.20670910940E+02 -0.85087382115E+02  0.11276429045E+03  0.47000000000E+01 0.  1.
         -5    1    4    4    0  502  0.43868523569E+02  0.29574881152E+02 -0.10993753700E+03  0.12209616290E+03  0.47000000000E+01 0.  1.
<mgrwt>
<rscale>  0 0.12465766E+03</rscale>
<asrwt>0</asrwt>
<pdfrwt beam="1">  1        2 0.77960118E-02 0.13255261E+03</pdfrwt>
<pdfrwt beam="2">  1       -2 0.42484107E-01 0.13255261E+03</pdfrwt>
<totfact> 0.44293735E+03</totfact>
</mgrwt>
</event>
<event>
 8    1  0.3551276E-004  0.1514025E+03  0.7546771E-02  0.1207687E+00
          1   -1    0    0  501    0  0.00000000000E+00  0.00000000000E+00  0.51337537362E+02  0.51337537362E+02  0.00000000000E+00 0. -1.
         -1   -1    0    0    0  501 -0.00000000000E+00 -0.00000000000E+00 -0.39385093691E+03  0.39385093691E+03  0.00000000000E+00 0.  1.
         25    2    1    2    0    0  0.31844975325E+02 -0.79273007093E+02 -0.23942421097E+03  0.28327841469E+03  0.12499758127E+03 0.  0.
         23    2    1    2    0    0 -0.31844975325E+02  0.79273007093E+02 -0.10308918858E+03  0.16191005958E+03  0.91044903672E+02 0.  0.
          5    1    4    4  502    0  0.29651496158E+02  0.32032445451E+02 -0.20269294953E+02  0.48355176598E+02  0.47000000000E+01 0. -1.
         -5    1    4    4    0  502 -0.61496471483E+02  0.47240561642E+02 -0.82819893622E+02  0.11355488298E+03  0.47000000000E+01 0.  1.
          5    1    3    3  503    0  0.46804009404E+02 -0.10235699592E+03 -0.13828664454E+03  0.17836158771E+03  0.47000000000E+01 0. -1.
         -5    1    3    3    0  503 -0.14959034079E+02  0.23083988832E+02 -0.10113756643E+03  0.10491682698E+03  0.47000000000E+01 0. -1.
<mgrwt>
<rscale>  0 0.14427688E+03</rscale>
<asrwt>0</asrwt>
<pdfrwt beam="1">  1        1 0.78980829E-02 0.15140247E+03</pdfrwt>
<pdfrwt beam="2">  1       -1 0.60592450E-01 0.15140247E+03</pdfrwt>
<totfact> 0.24551893E+03</totfact>
</mgrwt>
</event>
<event>
 8    1  0.3551276E-004  0.1272520E+03  0.7546771E-02  0.1246026E+00
         -1   -1    0    0    0  501 -0.00000000000E+00  0.00000000000E+00  0.22423908800E+02  0.22423908800E+02  0.00000000000E+00 0.  1.
          1   -1    0    0  501    0  0.00000000000E+00 -0.00000000000E+00 -0.55038203416E+03  0.55038203416E+03  0.00000000000E+00 0. -1.
         25    2    1    2    0    0 -0.16715062129E+02 -0.17079699955E+02 -0.30973056806E+03  0.33485236355E+03  0.12498788396E+03 0.  0.
         23    2    1    2    0    0  0.16715062129E+02  0.17079699955E+02 -0.21822755730E+03  0.23795357940E+03  0.91801578055E+02 0.  0.
          5    1    3    3  502    0 -0.30137545967E+02 -0.49007508443E+02 -0.62168961670E+02  0.84835590149E+02  0.47000000000E+01 0.  1.
         -5    1    3    3    0  502  0.13422483838E+02  0.31927808488E+02 -0.24756160639E+03  0.25001677340E+03  0.47000000000E+01 0.  1.
          5    1    4    4  503    0 -0.10971483409E+02  0.42200579438E+02 -0.17590158696E+03  0.18128629470E+03  0.47000000000E+01 0. -1.
         -5    1    4    4    0  503  0.27686545538E+02 -0.25120879484E+02 -0.42325970343E+02  0.56667284700E+02  0.47000000000E+01 0.  1.
<mgrwt>
<rscale>  0 0.11824170E+03</rscale>
<asrwt>0</asrwt>
<pdfrwt beam="1">  1        1 0.84674152E-01 0.12725204E+03</pdfrwt>
<pdfrwt beam="2">  1       -1 0.34498324E-02 0.12725204E+03</pdfrwt>
<totfact> 0.11509476E+04</totfact>
</mgrwt>
</event>
<event>
 8    1  0.3551276E-004  0.1819099E+03  0.7546771E-02  0.1170933E+00
          2   -1    0    0  501    0  0.00000000000E+00  0.00000000000E+00  0.40955912713E+03  0.40955912713E+03  0.00000000000E+00 0. -1.
         -2   -1    0    0    0  501 -0.00000000000E+00 -0.00000000000E+00 -0.72334996222E+02  0.72334996222E+02  0.00000000000E+00 0.  1.
         25    2    1    2    0    0  0.12452466978E+03 -0.44269080239E+02  0.17896527099E+03  0.25518579700E+03  0.12500031168E+03 0.  0.
         23    2    1    2    0    0 -0.12452466978E+03  0.44269080239E+02  0.15825885991E+03  0.22670832634E+03  0.94258440702E+02 0.  0.
          5    1    3    3  502    0  0.63547215508E+02 -0.62275464031E+02  0.31455423391E+02  0.94488177460E+02  0.47000000000E+01 0.  1.
         -5    1    4    4    0  503 -0.76556365981E+02  0.71510002399E+01  0.26294910726E+02  0.81397335992E+02  0.47000000000E+01 0.  1.
          5    1    4    4  503    0 -0.47968303802E+02  0.37118079999E+02  0.13196394918E+03  0.14531099035E+03  0.47000000000E+01 0. -1.
         -5    1    3    3    0  502  0.60977454275E+02  0.18006383792E+02  0.14750984760E+03  0.16069761954E+03  0.47000000000E+01 0.  1.
<mgrwt>
<rscale>  0 0.17680377E+03</rscale>
<asrwt>0</asrwt>
<pdfrwt beam="1">  1        2 0.63009095E-01 0.18190993E+03</pdfrwt>
<pdfrwt beam="2">  1       -2 0.11128461E-01 0.18190993E+03</pdfrwt>
<totfact> 0.42523559E+03</totfact>
</mgrwt>
</event>
<event>
 8    1  0.3551276E-004  0.1543407E+03  0.7546771E-02  0.1204033E+00
          1   -1    0    0  501    0  0.00000000000E+00  0.00000000000E+00  0.33896377368E+03  0.33896377368E+03  0.00000000000E+00 0. -1.
         -1   -1    0    0    0  501 -0.00000000000E+00 -0.00000000000E+00 -0.58668576631E+02  0.58668576631E+02  0.00000000000E+00 0.  1.
         25    2    1    2    0    0  0.22664081996E+02  0.87653645593E+02  0.16110355865E+03  0.22310405303E+03  0.12499695864E+03 0.  0.
         23    2    1    2    0    0 -0.22664081996E+02 -0.87653645593E+02  0.11919163840E+03  0.17452829728E+03  0.89758886409E+02 0.  0.
          5    1    4    4  502    0 -0.54235994149E+02 -0.75090215615E+02  0.80399601534E+02  0.12274473296E+03  0.47000000000E+01 0. -1.
         -5    1    3    3    0  503  0.33303419493E+02 -0.72018170962E+01  0.10891377635E+03  0.11421595597E+03  0.47000000000E+01 0. -1.
          5    1    3    3  503    0 -0.10639337497E+02  0.94855462689E+02  0.52189782298E+02  0.10888809706E+03  0.47000000000E+01 0. -1.
         -5    1    4    4    0  502  0.31571912153E+02 -0.12563429979E+02  0.38792036869E+02  0.51783564326E+02  0.47000000000E+01 0.  1.
<mgrwt>
<rscale>  0 0.14713931E+03</rscale>
<asrwt>0</asrwt>
<pdfrwt beam="1">  1        1 0.52148272E-01 0.15434073E+03</pdfrwt>
<pdfrwt beam="2">  1       -1 0.90259350E-02 0.15434073E+03</pdfrwt>
<totfact> 0.51786333E+03</totfact>
</mgrwt>
</event>
<event>
 8    1  0.3551276E-004  0.1968771E+03  0.7546771E-02  0.1157068E+00
         -4   -1    0    0    0  501 -0.00000000000E+00  0.00000000000E+00  0.40088771003E+03  0.40088771003E+03  0.00000000000E+00 0.  1.
          4   -1    0    0  501    0  0.00000000000E+00 -0.00000000000E+00 -0.88325108425E+02  0.88325108425E+02  0.00000000000E+00 0. -1.
         25    2    1    2    0    0 -0.13108816085E+03  0.77112701752E+02  0.19566232154E+03  0.27756858739E+03  0.12502040615E+03 0.  0.
         23    2    1    2    0    0  0.13108816085E+03 -0.77112701752E+02  0.11690028007E+03  0.21164423106E+03  0.89426675976E+02 0.  0.
          5    1    3    3  502    0 -0.13190276584E+03  0.22783170898E+02  0.17230318605E+03  0.21823815073E+03  0.47000000000E+01 0.  1.
         -5    1    3    3    0  502  0.81460498966E+00  0.54329530854E+02  0.23359135490E+02  0.59330436666E+02  0.47000000000E+01 0.  1.
          5    1    4    4  503    0  0.15731815456E+02 -0.56803354931E+02  0.42158062607E+02  0.72618891425E+02  0.47000000000E+01 0. -1.
         -5    1    4    4    0  503  0.11535634539E+03 -0.20309346821E+02  0.74742217465E+02  0.13902533964E+03  0.47000000000E+01 0.  1.
<mgrwt>
<rscale>  0 0.19155326E+03</rscale>
<asrwt>0</asrwt>
<pdfrwt beam="1">  1        4 0.13588478E-01 0.19687706E+03</pdfrwt>
<pdfrwt beam="2">  1       -4 0.61675031E-01 0.19687706E+03</pdfrwt>
<totfact> 0.19895434E+02</totfact>
</mgrwt>
</event>
<event>
 8    1  0.3551276E-004  0.1712012E+03  0.7546771E-02  0.1184095E+00
          2   -1    0    0  501    0  0.00000000000E+00  0.00000000000E+00  0.17704326719E+03  0.17704326719E+03  0.00000000000E+00 0. -1.
         -2   -1    0    0    0  501 -0.00000000000E+00 -0.00000000000E+00 -0.16979752067E+03  0.16979752067E+03  0.00000000000E+00 0.  1.
         25    2    1    2    0    0  0.10966671015E+03 -0.40712318370E+02 -0.67466128446E+02  0.18401497874E+03  0.12500221491E+03 0.  0.
         23    2    1    2    0    0 -0.10966671015E+03  0.40712318370E+02  0.74711874961E+02  0.16282580911E+03  0.85124025234E+02 0.  0.
          5    1    3    3  502    0  0.99556605821E+02 -0.59264499533E+02 -0.29815085021E+01  0.11599473290E+03  0.47000000000E+01 0. -1.
         -5    1    4    4    0  503 -0.42045520323E+02  0.54126632017E+02  0.12459023776E+02  0.69820021098E+02  0.47000000000E+01 0.  1.
          5    1    4    4  503    0 -0.67621189824E+02 -0.13414313647E+02  0.62252851185E+02  0.93005788016E+02  0.47000000000E+01 0. -1.
         -5    1    3    3    0  502  0.10110104327E+02  0.18552181163E+02 -0.64484619944E+02  0.68020245845E+02  0.47000000000E+01 0. -1.
<mgrwt>
<rscale>  0 0.16414481E+03</rscale>
<asrwt>0</asrwt>
<pdfrwt beam="1">  1        2 0.27237426E-01 0.17120115E+03</pdfrwt>
<pdfrwt beam="2">  1       -2 0.26122696E-01 0.17120115E+03</pdfrwt>
<totfact> 0.25125721E+03</totfact>
</mgrwt>
</event>
<event>
 8    1  0.3551276E-004  0.1844985E+03  0.7546771E-02  0.1168493E+00
          1   -1    0    0  501    0  0.00000000000E+00  0.00000000000E+00  0.38851911474E+02  0.38851911474E+02  0.00000000000E+00 0. -1.
         -1   -1    0    0    0  501 -0.00000000000E+00 -0.00000000000E+00 -0.79228651514E+03  0.79228651514E+03  0.00000000000E+00 0.  1.
         25    2    1    2    0    0  0.12031182010E+03 -0.62778243873E+02 -0.35525506311E+03  0.40030722514E+03  0.12499469059E+03 0.  0.
         23    2    1    2    0    0 -0.12031182010E+03  0.62778243873E+02 -0.39817954056E+03  0.43083120147E+03  0.93019007110E+02 0.  0.
          5    1    4    4  502    0 -0.27600051591E+02  0.26399820284E+02 -0.24538254514E+03  0.24838155490E+03  0.47000000000E+01 0. -1.
         -5    1    4    4    0  502 -0.92711768513E+02  0.36378423590E+02 -0.15279699542E+03  0.18244964657E+03  0.47000000000E+01 0.  1.
          5    1    3    3  503    0  0.11667510316E+03 -0.18285718320E+01 -0.17910248800E+03  0.21381350420E+03  0.47000000000E+01 0.  1.
         -5    1    3    3    0  503  0.36367169482E+01 -0.60949672041E+02 -0.17615257511E+03  0.18649372094E+03  0.47000000000E+01 0.  1.
<mgrwt>
<rscale>  0 0.17928869E+03</rscale>
<asrwt>0</asrwt>
<pdfrwt beam="1">  1        1 0.59772176E-02 0.18449855E+03</pdfrwt>
<pdfrwt beam="2">  1       -1 0.12189022E+00 0.18449855E+03</pdfrwt>
<totfact> 0.82201003E+02</totfact>
</mgrwt>
</event>
<event>
 8    1  0.3551276E-004  0.2247768E+03  0.7546771E-02  0.1133589E+00
         -2   -1    0    0    0  501 -0.00000000000E+00  0.00000000000E+00  0.19205344751E+03  0.19205344751E+03  0.00000000000E+00 0.  1.
          2   -1    0    0  501    0  0.00000000000E+00 -0.00000000000E+00 -0.25144768171E+03  0.25144768171E+03  0.00000000000E+00 0. -1.
         25    2    1    2    0    0  0.29860372927E+02 -0.18441243363E+03  0.84820859863E+01  0.22493676470E+03  0.12500005912E+03 0.  0.
         23    2    1    2    0    0 -0.29860372927E+02  0.18441243363E+03 -0.67876320180E+02  0.21856436452E+03  0.90904340094E+02 0.  0.
          5    1    4    4  502    0 -0.45930002237E+02  0.11048555606E+03 -0.76777345718E+02  0.14224441647E+03  0.47000000000E+01 0. -1.
         -5    1    4    4    0  502  0.16069629310E+02  0.73926877577E+02  0.89010255381E+01  0.76319948048E+02  0.47000000000E+01 0.  1.
          5    1    3    3  503    0  0.11543782732E+02 -0.14751659036E+03  0.59190807446E+02  0.15943664898E+03  0.47000000000E+01 0. -1.
         -5    1    3    3    0  503  0.18316590195E+02 -0.36895843271E+02 -0.50708721459E+02  0.65500115718E+02  0.47000000000E+01 0. -1.
<mgrwt>
<rscale>  0 0.22039553E+03</rscale>
<asrwt>0</asrwt>
<pdfrwt beam="1">  1        2 0.38684259E-01 0.22477678E+03</pdfrwt>
<pdfrwt beam="2">  1       -2 0.29546684E-01 0.22477678E+03</pdfrwt>
<totfact> 0.13874015E+03</totfact>
</mgrwt>
</event>
<event>
 8    1  0.3551276E-004  0.1506024E+03  0.7546771E-02  0.1208968E+00
          1   -1    0    0  501    0  0.00000000000E+00  0.00000000000E+00  0.31033781109E+03  0.31033781109E+03  0.00000000000E+00 0. -1.
         -1   -1    0    0    0  501 -0.00000000000E+00 -0.00000000000E+00 -0.61133582000E+02  0.61133582000E+02  0.00000000000E+00 0.  1.
         25    2    1    2    0    0 -0.82641374869E+02  0.15030414548E+02  0.11783932888E+03  0.19122552404E+03  0.12500233362E+03 0.  0.
         23    2    1    2    0    0  0.82641374869E+02 -0.15030414548E+02  0.13136490021E+03  0.18024586906E+03  0.90423039674E+02 0.  0.
          5    1    4    4  502    0  0.52133724753E+02 -0.20504653943E+02  0.13727858483E+03  0.14834374251E+03  0.47000000000E+01 0. -1.
         -5    1    4    4    0  502  0.30507650116E+02  0.54742393951E+01 -0.59136846168E+01  0.31902126548E+02  0.47000000000E+01 0.  1.
          5    1    3    3  503    0 -0.10127179043E+02 -0.39335607660E+02  0.85691204174E+02  0.94946944438E+02  0.47000000000E+01 0. -1.
         -5    1    3    3    0  503 -0.72514195826E+02  0.54366022208E+02  0.32148124711E+02  0.96278579598E+02  0.47000000000E+01 0. -1.
<mgrwt>
<rscale>  0 0.14329071E+03</rscale>
<asrwt>0</asrwt>
<pdfrwt beam="1">  1        1 0.47744278E-01 0.15060244E+03</pdfrwt>
<pdfrwt beam="2">  1       -1 0.94051666E-02 0.15060244E+03</pdfrwt>
<totfact> 0.54217633E+03</totfact>
</mgrwt>
</event>
<event>
 8    1  0.3551276E-004  0.1652938E+03  0.7546771E-02  0.1190866E+00
          4   -1    0    0  501    0  0.00000000000E+00  0.00000000000E+00  0.77578860826E+03  0.77578860826E+03  0.00000000000E+00 0. -1.
         -4   -1    0    0    0  501 -0.00000000000E+00 -0.00000000000E+00 -0.29708643712E+02  0.29708643712E+02  0.00000000000E+00 0.  1.
         25    2    1    2    0    0 -0.96134500218E+02  0.49551132832E+02  0.40991559886E+03  0.44198738298E+03  0.12499956652E+03 0.  0.
         23    2    1    2    0    0  0.96134500218E+02 -0.49551132832E+02  0.33616436569E+03  0.36350986899E+03  0.86231010637E+02 0.  0.
          5    1    4    4  502    0 -0.68795517332E+01 -0.30820068961E+02  0.10386790792E+03  0.10866387246E+03  0.47000000000E+01 0. -1.
         -5    1    4    4    0  502  0.10301405195E+03 -0.18731063871E+02  0.23229645777E+03  0.25484599653E+03  0.47000000000E+01 0.  1.
          5    1    3    3  503    0 -0.11002245112E+03  0.21058466246E+01  0.22488932128E+03  0.25041300120E+03  0.47000000000E+01 0.  1.
         -5    1    3    3    0  503  0.13887950903E+02  0.47445286208E+02  0.18502627758E+03  0.19157438179E+03  0.47000000000E+01 0.  1.
<mgrwt>
<rscale>  0 0.15809393E+03</rscale>
<asrwt>0</asrwt>
<pdfrwt beam="1">  1        4 0.11935208E+00 0.16529382E+03</pdfrwt>
<pdfrwt beam="2">  1       -4 0.45705611E-02 0.16529382E+03</pdfrwt>
<totfact> 0.26804547E+02</totfact>
</mgrwt>
</event>
<event>
 8    1  0.3551276E-004  0.1254385E+03  0.7546771E-02  0.1250345E+00
         -1   -1    0    0    0  501 -0.00000000000E+00  0.00000000000E+00  0.69918417532E+03  0.69918417532E+03  0.00000000000E+00 0.  1.
          1   -1    0    0  501    0  0.00000000000E+00 -0.00000000000E+00 -0.18215447695E+02  0.18215447695E+02  0.00000000000E+00 0. -1.
         25    2    1    2    0    0 -0.82123677866E+01  0.65124130791E+01  0.28905687060E+03  0.31510106639E+03  0.12499981236E+03 0.  0.
         23    2    1    2    0    0  0.82123677866E+01 -0.65124130791E+01  0.39191185702E+03  0.40229855662E+03  0.90218459735E+02 0.  0.
          5    1    3    3  502    0 -0.55526370892E+02 -0.18403511712E+02  0.79718737077E+02  0.98990070961E+02  0.47000000000E+01 0. -1.
         -5    1    3    3    0  502  0.47314003105E+02  0.24915924791E+02  0.20933813352E+03  0.21611099543E+03  0.47000000000E+01 0. -1.
          5    1    4    4  503    0 -0.14067144702E+02 -0.42203143010E+02  0.25814527960E+03  0.26199249077E+03  0.47000000000E+01 0. -1.
         -5    1    4    4    0  503  0.22279512489E+02  0.35690729930E+02  0.13376657742E+03  0.14030606585E+03  0.47000000000E+01 0.  1.
<mgrwt>
<rscale>  0 0.11571101E+03</rscale>
<asrwt>0</asrwt>
<pdfrwt beam="1">  1        1 0.28023771E-02 0.12543846E+03</pdfrwt>
<pdfrwt beam="2">  1       -1 0.10756678E+00 0.12543846E+03</pdfrwt>
<totfact> 0.30713848E+03</totfact>
</mgrwt>
</event>
<event>
 8    1  0.3551276E-004  0.2206327E+03  0.7546771E-02  0.1136376E+00
          1   -1    0    0  501    0  0.00000000000E+00  0.00000000000E+00  0.97811062292E+02  0.97811062292E+02  0.00000000000E+00 0. -1.
         -1   -1    0    0    0  501 -0.00000000000E+00 -0.00000000000E+00 -0.58111413426E+03  0.58111413426E+03  0.00000000000E+00 0.  1.
         25    2    1    2    0    0 -0.17007084126E+03 -0.64267697881E+02 -0.96057819234E+02  0.24063640852E+03  0.12499739369E+03 0.  0.
         23    2    1    2    0    0  0.17007084126E+03  0.64267697881E+02 -0.38724525274E+03  0.43828878804E+03  0.95308698002E+02 0.  0.
          5    1    4    4  502    0  0.13976323839E+03  0.29661324941E+02 -0.20269822770E+03  0.24803672816E+03  0.47000000000E+01 0. -1.
         -5    1    3    3    0  503 -0.58971480795E+02 -0.26370963710E+02 -0.10440199979E+03  0.12286142940E+03  0.47000000000E+01 0. -1.
          5    1    3    3  503    0 -0.11109936047E+03 -0.37896734171E+02  0.83441805554E+01  0.11777497912E+03  0.47000000000E+01 0. -1.
         -5    1    4    4    0  502  0.30307602876E+02  0.34606372939E+02 -0.18454702503E+03  0.19025205988E+03  0.47000000000E+01 0.  1.
<mgrwt>
<rscale>  0 0.21668899E+03</rscale>
<asrwt>0</asrwt>
<pdfrwt beam="1">  1        1 0.15047856E-01 0.22063267E+03</pdfrwt>
<pdfrwt beam="2">  1       -1 0.89402173E-01 0.22063267E+03</pdfrwt>
<totfact> 0.47935021E+02</totfact>
</mgrwt>
</event>
<event>
 8    1  0.3551276E-004  0.1631034E+03  0.7546771E-02  0.1192312E+00
          1   -1    0    0  501    0  0.00000000000E+00  0.00000000000E+00  0.31036229263E+03  0.31036229263E+03  0.00000000000E+00 0. -1.
         -1   -1    0    0    0  501 -0.00000000000E+00 -0.00000000000E+00 -0.85898677582E+02  0.85898677582E+02  0.00000000000E+00 0.  1.
         25    2    1    2    0    0  0.99857588485E+02  0.31761198678E+02  0.19411668104E+03  0.25354293252E+03  0.12498968379E+03 0.  0.
         23    2    1    2    0    0 -0.99857588485E+02 -0.31761198678E+02  0.30346934001E+02  0.14271803768E+03  0.92017336179E+02 0.  0.
          5    1    3    3  502    0  0.15942735485E+02  0.37425842951E+02  0.15563507096E+03  0.16093237663E+03  0.47000000000E+01 0. -1.
         -5    1    4    4    0  503 -0.19460669173E+02 -0.37044851832E+02  0.43956592635E+02  0.60871263565E+02  0.47000000000E+01 0.  1.
          5    1    4    4  503    0 -0.80396919312E+02  0.52836531541E+01 -0.13609658634E+02  0.81846774119E+02  0.47000000000E+01 0. -1.
         -5    1    3    3    0  502  0.83914853000E+02 -0.56646442728E+01  0.38481610089E+02  0.92610555898E+02  0.47000000000E+01 0. -1.
<mgrwt>
<rscale>  0 0.15683945E+03</rscale>
<asrwt>0</asrwt>
<pdfrwt beam="1">  1        1 0.47748044E-01 0.16310344E+03</pdfrwt>
<pdfrwt beam="2">  1       -1 0.13215181E-01 0.16310344E+03</pdfrwt>
<totfact> 0.32217520E+03</totfact>
</mgrwt>
</event>
<event>
 8    1  0.3551276E-004  0.1720491E+03  0.7546771E-02  0.1181845E+00
         -2   -1    0    0    0  501 -0.00000000000E+00  0.00000000000E+00  0.69929950891E+02  0.69929950891E+02  0.00000000000E+00 0.  1.
          2   -1    0    0  501    0  0.00000000000E+00 -0.00000000000E+00 -0.43327296545E+03  0.43327296545E+03  0.00000000000E+00 0. -1.
         25    2    1    2    0    0  0.11511750088E+03  0.26897840975E+02 -0.96832053498E+02  0.19742682407E+03  0.12500148566E+03 0.  0.
         23    2    1    2    0    0 -0.11511750088E+03 -0.26897840975E+02 -0.26651096106E+03  0.30577609227E+03  0.92170458280E+02 0.  0.
          5    1    4    4  502    0  0.37778189311E+01 -0.29394272840E+02 -0.41270723034E+02  0.51026049930E+02  0.47000000000E+01 0. -1.
         -5    1    4    4    0  502 -0.11889531982E+03  0.24964318657E+01 -0.22524023802E+03  0.25475004234E+03  0.47000000000E+01 0.  1.
          5    1    3    3  503    0  0.12010529606E+03 -0.16225862691E+00 -0.11316347219E+03  0.16508594703E+03  0.47000000000E+01 0.  1.
         -5    1    3    3    0  503 -0.49877951781E+01  0.27060099602E+02  0.16331418688E+02  0.32340877037E+02  0.47000000000E+01 0.  1.
<mgrwt>
<rscale>  0 0.16622333E+03</rscale>
<asrwt>0</asrwt>
<pdfrwt beam="1">  1        2 0.66657379E-01 0.17204913E+03</pdfrwt>
<pdfrwt beam="2">  1       -2 0.10758454E-01 0.17204913E+03</pdfrwt>
<totfact> 0.42116687E+03</totfact>
</mgrwt>
</event>
<event>
 8    1  0.3551276E-004  0.1376642E+03  0.7546771E-02  0.1227969E+00
         -1   -1    0    0    0  501 -0.00000000000E+00  0.00000000000E+00  0.34379801772E+03  0.34379801772E+03  0.00000000000E+00 0.  1.
          1   -1    0    0  501    0  0.00000000000E+00 -0.00000000000E+00 -0.52011554831E+02  0.52011554831E+02  0.00000000000E+00 0. -1.
         25    2    1    2    0    0  0.54622345461E+02  0.18511300131E+02  0.83406583739E+02  0.16095986278E+03  0.12500060143E+03 0.  0.
         23    2    1    2    0    0 -0.54622345461E+02 -0.18511300131E+02  0.20837987915E+03  0.23484970977E+03  0.91683931470E+02 0.  0.
          5    1    4    4  502    0 -0.20329478027E+01 -0.46103419395E+02  0.11594969820E+03  0.12488426910E+03  0.47000000000E+01 0. -1.
         -5    1    3    3    0  503  0.37457425924E+02  0.42187722651E+01 -0.28030824479E+02  0.47208833042E+02  0.47000000000E+01 0.  1.
          5    1    3    3  503    0  0.17164919537E+02  0.14292527866E+02  0.11143740822E+03  0.11375102974E+03  0.47000000000E+01 0.  1.
         -5    1    4    4    0  502 -0.52589397658E+02  0.27592119263E+02  0.92430180953E+02  0.10996544067E+03  0.47000000000E+01 0.  1.
<mgrwt>
<rscale>  0 0.12965466E+03</rscale>
<asrwt>0</asrwt>
<pdfrwt beam="1">  1        1 0.80017779E-02 0.13766415E+03</pdfrwt>
<pdfrwt beam="2">  1       -1 0.52892001E-01 0.13766415E+03</pdfrwt>
<totfact> 0.30988339E+03</totfact>
</mgrwt>
</event>
<event>
 8    1  0.3551276E-004  0.1350327E+03  0.7546771E-02  0.1232704E+00
          2   -1    0    0  501    0  0.00000000000E+00  0.00000000000E+00  0.42611724809E+03  0.42611724809E+03  0.00000000000E+00 0. -1.
         -2   -1    0    0    0  501 -0.00000000000E+00 -0.00000000000E+00 -0.36498873363E+02  0.36498873363E+02  0.00000000000E+00 0.  1.
         25    2    1    2    0    0  0.49896309864E+02 -0.11162835204E+02  0.28326098434E+03  0.31380027580E+03  0.12497830699E+03 0.  0.
         23    2    1    2    0    0 -0.49896309864E+02  0.11162835204E+02  0.10635739038E+03  0.14881584565E+03  0.90664275203E+02 0.  0.
          5    1    3    3  502    0  0.18569325818E+02 -0.38835115487E+02  0.20887574491E+02  0.48076676510E+02  0.47000000000E+01 0.  1.
         -5    1    4    4    0  503 -0.68425859131E+02  0.28802505911E+02  0.59639773290E+02  0.95345031872E+02  0.47000000000E+01 0.  1.
          5    1    4    4  503    0  0.18529549266E+02 -0.17639670708E+02  0.46717617095E+02  0.53470813774E+02  0.47000000000E+01 0. -1.
         -5    1    3    3    0  502  0.31326984046E+02  0.27672280283E+02  0.26237340985E+03  0.26572359929E+03  0.47000000000E+01 0.  1.
<mgrwt>
<rscale>  0 0.12652580E+03</rscale>
<asrwt>0</asrwt>
<pdfrwt beam="1">  1        2 0.65556496E-01 0.13503269E+03</pdfrwt>
<pdfrwt beam="2">  1       -2 0.56152116E-02 0.13503269E+03</pdfrwt>
<totfact> 0.11559400E+04</totfact>
</mgrwt>
</event>
<event>
 8    1  0.3551276E-004  0.1534200E+03  0.7546771E-02  0.1205177E+00
         -2   -1    0    0    0  501 -0.00000000000E+00  0.00000000000E+00  0.29821853061E+02  0.29821853061E+02  0.00000000000E+00 0.  1.
          2   -1    0    0  501    0  0.00000000000E+00 -0.00000000000E+00 -0.67918784231E+03  0.67918784231E+03  0.00000000000E+00 0. -1.
         25    2    1    2    0    0 -0.20427467302E+02 -0.86566173534E+02 -0.29167588933E+03  0.32956411757E+03  0.12500679723E+03 0.  0.
         23    2    1    2    0    0  0.20427467302E+02  0.86566173534E+02 -0.35769009992E+03  0.37944557780E+03  0.90142970384E+02 0.  0.
          5    1    3    3  502    0 -0.49568792265E+02  0.25092931209E+01 -0.16199343045E+03  0.16949136623E+03  0.47000000000E+01 0.  1.
         -5    1    3    3    0  502  0.29141324963E+02 -0.89075466655E+02 -0.12968245888E+03  0.16007275134E+03  0.47000000000E+01 0.  1.
          5    1    4    4  503    0 -0.62280248806E+01  0.97191480861E+02 -0.28012611493E+03  0.29661035470E+03  0.47000000000E+01 0. -1.
         -5    1    4    4    0  503  0.26655492183E+02 -0.10625307327E+02 -0.77563984984E+02  0.82835223099E+02  0.47000000000E+01 0.  1.
<mgrwt>
<rscale>  0 0.14623486E+03</rscale>
<asrwt>0</asrwt>
<pdfrwt beam="1">  1        2 0.10449043E+00 0.15341996E+03</pdfrwt>
<pdfrwt beam="2">  1       -2 0.45879779E-02 0.15341996E+03</pdfrwt>
<totfact> 0.93782811E+03</totfact>
</mgrwt>
</event>
<event>
 8    1  0.3551276E-004  0.2100816E+03  0.7546771E-02  0.1145372E+00
          2   -1    0    0  501    0  0.00000000000E+00  0.00000000000E+00  0.73253481457E+03  0.73253481457E+03  0.00000000000E+00 0. -1.
         -2   -1    0    0    0  501 -0.00000000000E+00 -0.00000000000E+00 -0.55170773458E+02  0.55170773458E+02  0.00000000000E+00 0.  1.
         25    2    1    2    0    0 -0.97271977706E+01  0.16856447095E+03  0.37434012763E+03  0.42926077846E+03  0.12500274210E+03 0.  0.
         23    2    1    2    0    0  0.97271977706E+01 -0.16856447095E+03  0.30302391349E+03  0.35844480957E+03  0.90280618724E+02 0.  0.
          5    1    4    4  502    0 -0.74803959370E+01 -0.78338617489E+02  0.22302525110E+03  0.23654861645E+03  0.47000000000E+01 0. -1.
         -5    1    3    3    0  503 -0.50536590144E+02  0.88849668460E+02  0.11051753712E+03  0.15061350052E+03  0.47000000000E+01 0. -1.
          5    1    3    3  503    0  0.40809392373E+02  0.79714802489E+02  0.26382259051E+03  0.27864727794E+03  0.47000000000E+01 0. -1.
         -5    1    4    4    0  502  0.17207593708E+02 -0.90225853460E+02  0.79998662386E+02  0.12189619312E+03  0.47000000000E+01 0.  1.
<mgrwt>
<rscale>  0 0.20526452E+03</rscale>
<asrwt>0</asrwt>
<pdfrwt beam="1">  1        2 0.11269766E+00 0.21008161E+03</pdfrwt>
<pdfrwt beam="2">  1       -2 0.84878118E-02 0.21008161E+03</pdfrwt>
<totfact> 0.33834952E+03</totfact>
</mgrwt>
</event>
<event>
 8    1  0.3551276E-004  0.2230854E+03  0.7546771E-02  0.1135252E+00
          1   -1    0    0  501    0  0.00000000000E+00  0.00000000000E+00  0.12524716850E+04  0.12524716850E+04  0.00000000000E+00 0. -1.
         -1   -1    0    0    0  501 -0.00000000000E+00 -0.00000000000E+00 -0.36421908778E+02  0.36421908778E+02  0.00000000000E+00 0.  1.
         25    2    1    2    0    0 -0.16047359165E+03 -0.91593684054E+02  0.63582057115E+03  0.67382109956E+03  0.12500359568E+03 0.  0.
         23    2    1    2    0    0  0.16047359165E+03  0.91593684054E+02  0.58022920506E+03  0.61507249421E+03  0.86643327233E+02 0.  0.
          5    1    4    4  502    0  0.12362542171E+03  0.10406911059E+03  0.50505428885E+03  0.53029760452E+03  0.47000000000E+01 0. -1.
         -5    1    4    4    0  502  0.36848169942E+02 -0.12475426534E+02  0.75174916212E+02  0.84774889695E+02  0.47000000000E+01 0.  1.
          5    1    3    3  503    0 -0.13798052606E+03 -0.11549984013E+03  0.59266720447E+03  0.61939917976E+03  0.47000000000E+01 0. -1.
         -5    1    3    3    0  503 -0.22493065591E+02  0.23906156072E+02  0.43153366685E+02  0.54421919794E+02  0.47000000000E+01 0. -1.
<mgrwt>
<rscale>  0 0.21817394E+03</rscale>
<asrwt>0</asrwt>
<pdfrwt beam="1">  1        1 0.19268792E+00 0.22308535E+03</pdfrwt>
<pdfrwt beam="2">  1       -1 0.56033715E-02 0.22308535E+03</pdfrwt>
<totfact> 0.15608520E+03</totfact>
</mgrwt>
</event>
<event>
 8    1  0.3551276E-004  0.1474733E+03  0.7546771E-02  0.1213227E+00
          2   -1    0    0  501    0  0.00000000000E+00  0.00000000000E+00  0.35536300444E+03  0.35536300444E+03  0.00000000000E+00 0. -1.
         -2   -1    0    0    0  501 -0.00000000000E+00 -0.00000000000E+00 -0.57873650385E+02  0.57873650385E+02  0.00000000000E+00 0.  1.
         25    2    1    2    0    0 -0.72876397470E+02 -0.28452483503E+02  0.23620471617E+03  0.27846192212E+03  0.12501144350E+03 0.  0.
         23    2    1    2    0    0  0.72876397470E+02  0.28452483503E+02  0.61284637893E+02  0.13477473271E+03  0.91037951477E+02 0.  0.
          5    1    3    3  502    0 -0.45931778434E+02 -0.68192611915E+02  0.20521599011E+03  0.22112361517E+03  0.47000000000E+01 0.  1.
         -5    1    4    4    0  503 -0.20920643420E+01  0.29145570511E+02 -0.99766359863E+01  0.31232423525E+02  0.47000000000E+01 0.  1.
          5    1    4    4  503    0  0.74968461812E+02 -0.69308700836E+00  0.71261273880E+02  0.10354230918E+03  0.47000000000E+01 0. -1.
         -5    1    3    3    0  502 -0.26944619036E+02  0.39740128412E+02  0.30988726057E+02  0.57338306949E+02  0.47000000000E+01 0.  1.
<mgrwt>
<rscale>  0 0.14007547E+03</rscale>
<asrwt>0</asrwt>
<pdfrwt beam="1">  1        2 0.54671230E-01 0.14747330E+03</pdfrwt>
<pdfrwt beam="2">  1       -2 0.89036387E-02 0.14747330E+03</pdfrwt>
<totfact> 0.69629258E+03</totfact>
</mgrwt>
</event>
<event>
 8    1  0.3551276E-004  0.1497986E+03  0.7546771E-02  0.1209871E+00
          1   -1    0    0  501    0  0.00000000000E+00  0.00000000000E+00  0.32342603497E+03  0.32342603497E+03  0.00000000000E+00 0. -1.
         -1   -1    0    0    0  501 -0.00000000000E+00 -0.00000000000E+00 -0.57580061346E+02  0.57580061346E+02  0.00000000000E+00 0.  1.
         25    2    1    2    0    0  0.50464331625E+02  0.65329535765E+02  0.14044799671E+03  0.20534182649E+03  0.12500011567E+03 0.  0.
         23    2    1    2    0    0 -0.50464331625E+02 -0.65329535765E+02  0.12539797691E+03  0.17566426983E+03  0.91206831270E+02 0.  0.
          5    1    4    4  502    0 -0.70240987003E+02 -0.37088440139E+02  0.11405068923E+03  0.13906472724E+03  0.47000000000E+01 0. -1.
         -5    1    4    4    0  502  0.19776655378E+02 -0.28241095626E+02  0.11347287681E+02  0.36599542591E+02  0.47000000000E+01 0.  1.
          5    1    3    3  503    0  0.43691653608E+02  0.76575048642E+01 -0.84975385373E+01  0.45408106511E+02  0.47000000000E+01 0. -1.
         -5    1    3    3    0  503  0.67726780168E+01  0.57672030901E+02  0.14894553525E+03  0.15993371998E+03  0.47000000000E+01 0. -1.
<mgrwt>
<rscale>  0 0.14260098E+03</rscale>
<asrwt>0</asrwt>
<pdfrwt beam="1">  1        1 0.49757850E-01 0.14979862E+03</pdfrwt>
<pdfrwt beam="2">  1       -1 0.88584712E-02 0.14979862E+03</pdfrwt>
<totfact> 0.56400166E+03</totfact>
</mgrwt>
</event>
<event>
 8    1  0.3551276E-004  0.1716046E+03  0.7546771E-02  0.1182566E+00
          2   -1    0    0  501    0  0.00000000000E+00  0.00000000000E+00  0.46269933699E+03  0.46269933699E+03  0.00000000000E+00 0. -1.
         -2   -1    0    0    0  501 -0.00000000000E+00 -0.00000000000E+00 -0.55579979634E+02  0.55579979634E+02  0.00000000000E+00 0.  1.
         25    2    1    2    0    0 -0.97223415428E+02  0.66100450200E+02  0.20405679116E+03  0.26662201277E+03  0.12500584647E+03 0.  0.
         23    2    1    2    0    0  0.97223415428E+02 -0.66100450200E+02  0.20306256620E+03  0.25165730386E+03  0.90968845043E+02 0.  0.
          5    1    3    3  502    0  0.22803236524E+02 -0.12094606139E+02  0.48220328324E+02  0.54895875595E+02  0.47000000000E+01 0. -1.
         -5    1    4    4    0  503  0.74193908461E+02 -0.72085199647E+02  0.93748805876E+02  0.13968514833E+03  0.47000000000E+01 0.  1.
          5    1    4    4  503    0  0.23029506967E+02  0.59847494469E+01  0.10931376032E+03  0.11197215553E+03  0.47000000000E+01 0. -1.
         -5    1    3    3    0  502 -0.12002665195E+03  0.78195056339E+02  0.15583646284E+03  0.21172613718E+03  0.47000000000E+01 0. -1.
<mgrwt>
<rscale>  0 0.16555346E+03</rscale>
<asrwt>0</asrwt>
<pdfrwt beam="1">  1        2 0.71184511E-01 0.17160456E+03</pdfrwt>
<pdfrwt beam="2">  1       -2 0.85507664E-02 0.17160456E+03</pdfrwt>
<totfact> 0.56283106E+03</totfact>
</mgrwt>
</event>
<event>
 8    1  0.3551276E-004  0.1350133E+03  0.7546771E-02  0.1233426E+00
          2   -1    0    0  501    0  0.00000000000E+00  0.00000000000E+00  0.86133295538E+02  0.86133295538E+02  0.00000000000E+00 0. -1.
         -2   -1    0    0    0  501 -0.00000000000E+00 -0.00000000000E+00 -0.22962166246E+03  0.22962166246E+03  0.00000000000E+00 0.  1.
         25    2    1    2    0    0  0.43041375676E+02 -0.27386379949E+02  0.51894902034E+01  0.13511304256E+03  0.12500411847E+03 0.  0.
         23    2    1    2    0    0 -0.43041375676E+02  0.27386379949E+02 -0.14867785712E+03  0.18064191544E+03  0.89015855820E+02 0.  0.
          5    1    3    3  502    0  0.85794230944E+02 -0.39215189342E+01  0.26850324759E+01  0.86054214153E+02  0.47000000000E+01 0. -1.
         -5    1    4    4    0  503  0.20356039826E+02 -0.89191819345E+00 -0.80715285985E+02  0.83379921247E+02  0.47000000000E+01 0.  1.
          5    1    4    4  503    0 -0.63397415502E+02  0.28278298142E+02 -0.67962571136E+02  0.97261994188E+02  0.47000000000E+01 0. -1.
         -5    1    3    3    0  502 -0.42752855269E+02 -0.23464861014E+02  0.25044577275E+01  0.49058828406E+02  0.47000000000E+01 0. -1.
<mgrwt>
<rscale>  0 0.12605715E+03</rscale>
<asrwt>0</asrwt>
<pdfrwt beam="1">  1        2 0.13251276E-01 0.13501335E+03</pdfrwt>
<pdfrwt beam="2">  1       -2 0.35326409E-01 0.13501335E+03</pdfrwt>
<totfact> 0.32781207E+03</totfact>
</mgrwt>
</event>
<event>
 8    1  0.3551276E-004  0.1330522E+03  0.7546771E-02  0.1235614E+00
         -3   -1    0    0    0  501 -0.00000000000E+00  0.00000000000E+00  0.25984975737E+03  0.25984975737E+03  0.00000000000E+00 0.  1.
          3   -1    0    0  501    0  0.00000000000E+00 -0.00000000000E+00 -0.55705978976E+02  0.55705978976E+02  0.00000000000E+00 0. -1.
         25    2    1    2    0    0  0.27645271589E+02  0.36248069074E+02  0.82793415938E+02  0.15670877012E+03  0.12499882142E+03 0.  0.
         23    2    1    2    0    0 -0.27645271589E+02 -0.36248069074E+02  0.12135036246E+03  0.15884696623E+03  0.91805580769E+02 0.  0.
          5    1    4    4  502    0 -0.77918383695E+01 -0.49684868338E+02  0.19560169008E+02  0.54166309627E+02  0.47000000000E+01 0. -1.
         -5    1    3    3    0  503 -0.21302932596E+02  0.64758279255E+02  0.71222369678E+02  0.98702409352E+02  0.47000000000E+01 0.  1.
          5    1    3    3  503    0  0.48948204185E+02 -0.28510210181E+02  0.11571046260E+02  0.58006360764E+02  0.47000000000E+01 0.  1.
         -5    1    4    4    0  502 -0.19853433219E+02  0.13436799265E+02  0.10179019345E+03  0.10468065661E+03  0.47000000000E+01 0.  1.
<mgrwt>
<rscale>  0 0.12465180E+03</rscale>
<asrwt>0</asrwt>
<pdfrwt beam="1">  1        3 0.85701507E-02 0.13305220E+03</pdfrwt>
<pdfrwt beam="2">  1       -3 0.39976885E-01 0.13305220E+03</pdfrwt>
<totfact> 0.13581008E+03</totfact>
</mgrwt>
</event>
<event>
 8    1  0.3551276E-004  0.1961201E+03  0.7546771E-02  0.1157609E+00
          2   -1    0    0  501    0  0.00000000000E+00  0.00000000000E+00  0.16597226251E+04  0.16597226251E+04  0.00000000000E+00 0. -1.
         -2   -1    0    0    0  501 -0.00000000000E+00 -0.00000000000E+00 -0.21351742465E+02  0.21351742465E+02  0.00000000000E+00 0.  1.
         25    2    1    2    0    0 -0.12518635195E+03  0.84646557283E+02  0.73779900042E+03  0.76342024248E+03  0.12500575684E+03 0.  0.
         23    2    1    2    0    0  0.12518635195E+03 -0.84646557283E+02  0.90057188220E+03  0.91765412507E+03  0.90679191997E+02 0.  0.
          5    1    4    4  502    0  0.62286199896E+02 -0.52605410225E+02  0.24447200141E+03  0.25775094443E+03  0.47000000000E+01 0. -1.
         -5    1    3    3    0  503 -0.61833741594E+02  0.12309001981E+02  0.53728890404E+03  0.54099572968E+03  0.47000000000E+01 0.  1.
          5    1    3    3  503    0 -0.63352610359E+02  0.72337555303E+02  0.20051009638E+03  0.22242451280E+03  0.47000000000E+01 0.  1.
         -5    1    4    4    0  502  0.62900152056E+02 -0.32041147058E+02  0.65609988080E+03  0.65990318064E+03  0.47000000000E+01 0.  1.
<mgrwt>
<rscale>  0 0.19094826E+03</rscale>
<asrwt>0</asrwt>
<pdfrwt beam="1">  1        2 0.25534184E+00 0.19612012E+03</pdfrwt>
<pdfrwt beam="2">  1       -2 0.32848848E-02 0.19612012E+03</pdfrwt>
<totfact> 0.41346647E+03</totfact>
</mgrwt>
</event>
<event>
 8    1  0.3551276E-004  0.3597343E+03  0.7546771E-02  0.1059739E+00
          1   -1    0    0  501    0  0.00000000000E+00  0.00000000000E+00  0.32453694181E+03  0.32453694181E+03  0.00000000000E+00 0. -1.
         -1   -1    0    0    0  501 -0.00000000000E+00 -0.00000000000E+00 -0.38766694932E+03  0.38766694932E+03  0.00000000000E+00 0.  1.
         25    2    1    2    0    0  0.23912787943E+03  0.23791077117E+03 -0.20598508342E+02  0.36032353727E+03  0.12500030082E+03 0.  0.
         23    2    1    2    0    0 -0.23912787943E+03 -0.23791077117E+03 -0.42531499169E+02  0.35188035385E+03  0.90703788501E+02 0.  0.
          5    1    3    3  502    0  0.73316772753E+02  0.99939838156E+01 -0.25457272462E+02  0.78392548119E+02  0.47000000000E+01 0. -1.
         -5    1    4    4    0  503 -0.16365992334E+03 -0.10777154863E+03 -0.45959929687E+02  0.20132978503E+03  0.47000000000E+01 0.  1.
          5    1    4    4  503    0 -0.75467956091E+02 -0.13013922253E+03  0.34284305179E+01  0.15055056883E+03  0.47000000000E+01 0. -1.
         -5    1    3    3    0  502  0.16581110668E+03  0.22791678735E+03  0.48587641208E+01  0.28193098915E+03  0.47000000000E+01 0. -1.
<mgrwt>
<rscale>  0 0.35709698E+03</rscale>
<asrwt>0</asrwt>
<pdfrwt beam="1">  1        1 0.49928761E-01 0.35973428E+03</pdfrwt>
<pdfrwt beam="2">  1       -1 0.59641069E-01 0.35973428E+03</pdfrwt>
<totfact> 0.23318226E+02</totfact>
</mgrwt>
</event>
<event>
 8    1  0.3551276E-004  0.1687939E+03  0.7546771E-02  0.1186376E+00
          2   -1    0    0  501    0  0.00000000000E+00  0.00000000000E+00  0.26681370820E+03  0.26681370820E+03  0.00000000000E+00 0. -1.
         -2   -1    0    0    0  501 -0.00000000000E+00 -0.00000000000E+00 -0.19097371481E+03  0.19097371481E+03  0.00000000000E+00 0.  1.
         25    2    1    2    0    0 -0.61352427498E+02 -0.95415884164E+02 -0.12565659942E+03  0.21043041550E+03  0.12499226967E+03 0.  0.
         23    2    1    2    0    0  0.61352427498E+02  0.95415884164E+02  0.20149659281E+03  0.24735700751E+03  0.87842477975E+02 0.  0.
          5    1    3    3  502    0  0.33598560982E+02 -0.38724745101E+02 -0.14326428557E+02  0.53439739318E+02  0.47000000000E+01 0. -1.
         -5    1    4    4    0  503  0.63875671727E+02  0.18918545697E+02  0.92643608449E+02  0.11420569599E+03  0.47000000000E+01 0.  1.
          5    1    4    4  503    0 -0.25232442285E+01  0.76497338467E+02  0.10885298436E+03  0.13315131152E+03  0.47000000000E+01 0. -1.
         -5    1    3    3    0  502 -0.94950988480E+02 -0.56691139063E+02 -0.11133017087E+03  0.15699067618E+03  0.47000000000E+01 0. -1.
<mgrwt>
<rscale>  0 0.16207289E+03</rscale>
<asrwt>0</asrwt>
<pdfrwt beam="1">  1        2 0.41048263E-01 0.16879389E+03</pdfrwt>
<pdfrwt beam="2">  1       -2 0.29380571E-01 0.16879389E+03</pdfrwt>
<totfact> 0.13062947E+03</totfact>
</mgrwt>
</event>
<event>
 8    1  0.3551276E-004  0.2746297E+03  0.7546771E-02  0.1100722E+00
         -1   -1    0    0    0  501 -0.00000000000E+00  0.00000000000E+00  0.17744064675E+03  0.17744064675E+03  0.00000000000E+00 0.  1.
          1   -1    0    0  501    0  0.00000000000E+00 -0.00000000000E+00 -0.40318793389E+03  0.40318793389E+03  0.00000000000E+00 0. -1.
         25    2    1    2    0    0 -0.10510344147E+02  0.24430515669E+03 -0.11764568292E+03  0.29876744287E+03  0.12500400510E+03 0.  0.
         23    2    1    2    0    0  0.10510344147E+02 -0.24430515669E+03 -0.10810160422E+03  0.28186113777E+03  0.89242743281E+02 0.  0.
          5    1    4    4  502    0 -0.21188786600E+02 -0.13410176292E+03 -0.20291301051E+02  0.13735382919E+03  0.47000000000E+01 0.  1.
         -5    1    4    4    0  502  0.31699130747E+02 -0.11020339377E+03 -0.87810303164E+02  0.14450730857E+03  0.47000000000E+01 0. -1.
          5    1    3    3  503    0  0.54756786841E+02  0.11411125882E+03 -0.73855157780E+02  0.14661636821E+03  0.47000000000E+01 0.  1.
         -5    1    3    3    0  503 -0.65267130988E+02  0.13019389787E+03 -0.43790525136E+02  0.15215107467E+03  0.47000000000E+01 0.  1.
<mgrwt>
<rscale>  0 0.27097680E+03</rscale>
<asrwt>0</asrwt>
<pdfrwt beam="1">  1        1 0.62028912E-01 0.27462971E+03</pdfrwt>
<pdfrwt beam="2">  1       -1 0.27298561E-01 0.27462971E+03</pdfrwt>
<totfact> 0.72220460E+02</totfact>
</mgrwt>
</event>
<event>
 8    1  0.3551276E-004  0.1367583E+03  0.7546771E-02  0.1228757E+00
          2   -1    0    0  501    0  0.00000000000E+00  0.00000000000E+00  0.62907520011E+03  0.62907520011E+03  0.00000000000E+00 0. -1.
         -2   -1    0    0    0  501 -0.00000000000E+00 -0.00000000000E+00 -0.23948452811E+02  0.23948452811E+02  0.00000000000E+00 0.  1.
         25    2    1    2    0    0  0.41199532067E+02  0.37178642964E+02  0.33205820286E+03  0.35911764744E+03  0.12499272652E+03 0.  0.
         23    2    1    2    0    0 -0.41199532067E+02 -0.37178642964E+02  0.27306854444E+03  0.29390600548E+03  0.93459387759E+02 0.  0.
          5    1    4    4  502    0  0.17794727766E+02 -0.94879019294E+01  0.17402032067E+03  0.17524792331E+03  0.47000000000E+01 0. -1.
         -5    1    4    4    0  502 -0.58994259833E+02 -0.27690741034E+02  0.99048223778E+02  0.11865808218E+03  0.47000000000E+01 0.  1.
          5    1    3    3  503    0  0.24937342843E+02 -0.22473328341E+02  0.16823479099E+02  0.37842317632E+02  0.47000000000E+01 0.  1.
         -5    1    3    3    0  503  0.16262189224E+02  0.59651971305E+02  0.31523472376E+03  0.32127532980E+03  0.47000000000E+01 0.  1.
<mgrwt>
<rscale>  0 0.12912678E+03</rscale>
<asrwt>0</asrwt>
<pdfrwt beam="1">  1        2 0.96780787E-01 0.13675831E+03</pdfrwt>
<pdfrwt beam="2">  1       -2 0.36843778E-02 0.13675831E+03</pdfrwt>
<totfact> 0.14112713E+04</totfact>
</mgrwt>
</event>
<event>
 8    1  0.3551276E-004  0.1614120E+03  0.7546771E-02  0.1194899E+00
         -2   -1    0    0    0  501 -0.00000000000E+00  0.00000000000E+00  0.10113369434E+03  0.10113369434E+03  0.00000000000E+00 0. -1.
          2   -1    0    0  501    0  0.00000000000E+00 -0.00000000000E+00 -0.21856483571E+03  0.21856483571E+03  0.00000000000E+00 0.  1.
         25    2    1    2    0    0 -0.61855535035E+02 -0.81282097269E+02 -0.63636524423E+02  0.17350341494E+03  0.12498376376E+03 0.  0.
         23    2    1    2    0    0  0.61855535035E+02  0.81282097269E+02 -0.53794616941E+02  0.14619511511E+03  0.89700971672E+02 0.  0.
          5    1    3    3  502    0 -0.39322988314E+02 -0.10828800125E+03 -0.73421898375E+02  0.13669474674E+03  0.47000000000E+01 0. -1.
         -5    1    3    3    0  502 -0.22532546721E+02  0.27005903978E+02  0.97853739518E+01  0.36808668202E+02  0.47000000000E+01 0. -1.
          5    1    4    4  503    0 -0.63241716370E+01  0.54507793231E+02  0.20075630608E+00  0.55074721724E+02  0.47000000000E+01 0. -1.
         -5    1    4    4    0  503  0.68179706672E+02  0.26774304038E+02 -0.53995373247E+02  0.91120393385E+02  0.47000000000E+01 0.  1.
<mgrwt>
<rscale>  0 0.15462762E+03</rscale>
<asrwt>0</asrwt>
<pdfrwt beam="1">  1        2 0.33625359E-01 0.16141198E+03</pdfrwt>
<pdfrwt beam="2">  1       -2 0.15559030E-01 0.16141198E+03</pdfrwt>
<totfact> 0.48144088E+03</totfact>
</mgrwt>
</event>
<event>
 8    1  0.3551276E-004  0.2074908E+03  0.7546771E-02  0.1147479E+00
          1   -1    0    0  501    0  0.00000000000E+00  0.00000000000E+00  0.11420492081E+04  0.11420492081E+04  0.00000000000E+00 0. -1.
         -1   -1    0    0    0  501 -0.00000000000E+00 -0.00000000000E+00 -0.37834527976E+02  0.37834527976E+02  0.00000000000E+00 0.  1.
         25    2    1    2    0    0 -0.15268050569E+03 -0.64154636502E+02  0.39826079597E+03  0.44907023268E+03  0.12500103231E+03 0.  0.
         23    2    1    2    0    0  0.15268050569E+03  0.64154636502E+02  0.70595388412E+03  0.73081350335E+03  0.91051282136E+02 0.  0.
          5    1    3    3  502    0 -0.12835148928E+03  0.49855448211E+01  0.30015226785E+03  0.32651559588E+03  0.47000000000E+01 0.  1.
         -5    1    4    4    0  503  0.39813919950E+02 -0.39581716924E+01  0.65349092791E+02  0.76768543516E+02  0.47000000000E+01 0.  1.
          5    1    4    4  503    0  0.11286658574E+03  0.68112808194E+02  0.64060479133E+03  0.65404495984E+03  0.47000000000E+01 0. -1.
         -5    1    3    3    0  502 -0.24329016404E+02 -0.69140181323E+02  0.98108528114E+02  0.12255463680E+03  0.47000000000E+01 0.  1.
<mgrwt>
<rscale>  0 0.20270253E+03</rscale>
<asrwt>0</asrwt>
<pdfrwt beam="1">  1        1 0.17569985E+00 0.20749075E+03</pdfrwt>
<pdfrwt beam="2">  1       -1 0.58206975E-02 0.20749075E+03</pdfrwt>
<totfact> 0.17595005E+03</totfact>
</mgrwt>
</event>
<event>
 8    1  0.3551276E-004  0.1286227E+03  0.7546771E-02  0.1245514E+00
          2   -1    0    0  501    0  0.00000000000E+00  0.00000000000E+00  0.14408324700E+03  0.14408324700E+03  0.00000000000E+00 0. -1.
         -2   -1    0    0    0  501 -0.00000000000E+00 -0.00000000000E+00 -0.85077764546E+02  0.85077764546E+02  0.00000000000E+00 0.  1.
         25    2    1    2    0    0 -0.18455220896E+02  0.24044045370E+02  0.34335416812E+02  0.13312668808E+03  0.12500033175E+03 0.  0.
         23    2    1    2    0    0  0.18455220896E+02 -0.24044045370E+02  0.24670065646E+02  0.96034323465E+02  0.87722675793E+02 0.  0.
          5    1    3    3  502    0 -0.66472358221E+02 -0.76412331383E+01  0.34452505107E+02  0.75405755480E+02  0.47000000000E+01 0.  1.
         -5    1    4    4    0  503  0.12231361297E+02  0.19752144053E+02 -0.21441666747E+02  0.31962297583E+02  0.47000000000E+01 0.  1.
          5    1    4    4  503    0  0.62238595987E+01 -0.43796189424E+02  0.46111732393E+02  0.64072025882E+02  0.47000000000E+01 0. -1.
         -5    1    3    3    0  502  0.48017137326E+02  0.31685278509E+02 -0.11708829461E+00  0.57720932605E+02  0.47000000000E+01 0.  1.
<mgrwt>
<rscale>  0 0.11854648E+03</rscale>
<asrwt>0</asrwt>
<pdfrwt beam="1">  1        2 0.22166653E-01 0.12862268E+03</pdfrwt>
<pdfrwt beam="2">  1       -2 0.13088887E-01 0.12862268E+03</pdfrwt>
<totfact> 0.99152295E+03</totfact>
</mgrwt>
</event>
<event>
 8    1  0.3551276E-004  0.1687028E+03  0.7546771E-02  0.1186025E+00
         -2   -1    0    0    0  501 -0.00000000000E+00  0.00000000000E+00  0.13376034583E+03  0.13376034583E+03  0.00000000000E+00 0.  1.
          2   -1    0    0  501    0  0.00000000000E+00 -0.00000000000E+00 -0.18610578106E+03  0.18610578106E+03  0.00000000000E+00 0. -1.
         25    2    1    2    0    0  0.95671562194E+02  0.60683531333E+02 -0.46145977195E+02  0.17490020065E+03  0.12500036076E+03 0.  0.
         23    2    1    2    0    0 -0.95671562194E+02 -0.60683531333E+02 -0.61994580347E+01  0.14496592625E+03  0.90228308776E+02 0.  0.
          5    1    4    4  502    0 -0.24994062186E+02 -0.43511450938E+02 -0.40269169501E+02  0.64510817074E+02  0.47000000000E+01 0. -1.
         -5    1    3    3    0  503  0.10591182101E+03 -0.97234584266E+00 -0.29671902959E+02  0.11009437365E+03  0.47000000000E+01 0.  1.
          5    1    3    3  503    0 -0.10240258812E+02  0.61655877175E+02 -0.16474074236E+02  0.64805826997E+02  0.47000000000E+01 0.  1.
         -5    1    4    4    0  502 -0.70677500007E+02 -0.17172080395E+02  0.34069711466E+02  0.80455109171E+02  0.47000000000E+01 0.  1.
<mgrwt>
<rscale>  0 0.16238982E+03</rscale>
<asrwt>0</asrwt>
<pdfrwt beam="1">  1        2 0.28631658E-01 0.16870278E+03</pdfrwt>
<pdfrwt beam="2">  1       -2 0.20578515E-01 0.16870278E+03</pdfrwt>
<totfact> 0.35966469E+03</totfact>
</mgrwt>
</event>
<event>
 8    1  0.3551276E-004  0.2044614E+03  0.7546771E-02  0.1150056E+00
          1   -1    0    0  501    0  0.00000000000E+00  0.00000000000E+00  0.52061190408E+03  0.52061190408E+03  0.00000000000E+00 0. -1.
         -1   -1    0    0    0  501 -0.00000000000E+00 -0.00000000000E+00 -0.76862915261E+02  0.76862915261E+02  0.00000000000E+00 0.  1.
         25    2    1    2    0    0  0.14610239838E+03 -0.69531285305E+02  0.16623922747E+03  0.26351463815E+03  0.12499589322E+03 0.  0.
         23    2    1    2    0    0 -0.14610239838E+03  0.69531285305E+02  0.27750976135E+03  0.33396018119E+03  0.91308403369E+02 0.  0.
          5    1    3    3  502    0  0.39714716873E+02 -0.17756982969E+02 -0.15656103216E+02  0.46473355252E+02  0.47000000000E+01 0.  1.
         -5    1    3    3    0  502  0.10638768151E+03 -0.51774302336E+02  0.18189533068E+03  0.21704128290E+03  0.47000000000E+01 0.  1.
          5    1    4    4  503    0 -0.14286143558E+03  0.34944985587E+02  0.24689484988E+03  0.28741902980E+03  0.47000000000E+01 0. -1.
         -5    1    4    4    0  503 -0.32409627968E+01  0.34586299718E+02  0.30614911469E+02  0.46541151386E+02  0.47000000000E+01 0.  1.
<mgrwt>
<rscale>  0 0.19962451E+03</rscale>
<asrwt>0</asrwt>
<pdfrwt beam="1">  1        1 0.80094137E-01 0.20446145E+03</pdfrwt>
<pdfrwt beam="2">  1       -1 0.11825064E-01 0.20446145E+03</pdfrwt>
<totfact> 0.19905050E+03</totfact>
</mgrwt>
</event>
<event>
 8    1  0.3551276E-004  0.1430829E+03  0.7546771E-02  0.1219281E+00
         -1   -1    0    0    0  501 -0.00000000000E+00  0.00000000000E+00  0.13905060998E+02  0.13905060998E+02  0.00000000000E+00 0.  1.
          1   -1    0    0  501    0  0.00000000000E+00 -0.00000000000E+00 -0.12038445053E+04  0.12038445053E+04  0.00000000000E+00 0. -1.
         25    2    1    2    0    0 -0.61287079013E+02 -0.32996967125E+02 -0.64844631999E+03  0.66404468760E+03  0.12501124480E+03 0.  0.
         23    2    1    2    0    0  0.61287079013E+02  0.32996967125E+02 -0.54149312430E+03  0.55370487869E+03  0.92354659463E+02 0.  0.
          5    1    3    3  502    0  0.20030785629E+01 -0.39430945439E+02 -0.58941129450E+02  0.71098231503E+02  0.47000000000E+01 0.  1.
         -5    1    3    3    0  502 -0.63290157576E+02  0.64339783142E+01 -0.58950519054E+03  0.59294645610E+03  0.47000000000E+01 0.  1.
          5    1    4    4  503    0  0.56700861828E+02 -0.21021841503E+02 -0.31283641042E+03  0.31866222751E+03  0.47000000000E+01 0. -1.
         -5    1    4    4    0  503  0.45862171856E+01  0.54018808629E+02 -0.22865671387E+03  0.23504265118E+03  0.47000000000E+01 0.  1.
<mgrwt>
<rscale>  0 0.13566713E+03</rscale>
<asrwt>0</asrwt>
<pdfrwt beam="1">  1        1 0.18520689E+00 0.14308290E+03</pdfrwt>
<pdfrwt beam="2">  1       -1 0.21392396E-02 0.14308290E+03</pdfrwt>
<totfact> 0.69014725E+03</totfact>
</mgrwt>
</event>
<event>
 8    1  0.3551276E-004  0.1444742E+03  0.7546771E-02  0.1218214E+00
          2   -1    0    0  501    0  0.00000000000E+00  0.00000000000E+00  0.30150206119E+02  0.30150206119E+02  0.00000000000E+00 0.  1.
         -2   -1    0    0    0  501 -0.00000000000E+00 -0.00000000000E+00 -0.55922713881E+03  0.55922713881E+03  0.00000000000E+00 0. -1.
         25    2    1    2    0    0 -0.44457781167E+02  0.57191323917E+02 -0.27976445121E+03  0.31486652547E+03  0.12500175543E+03 0.  0.
         23    2    1    2    0    0  0.44457781167E+02 -0.57191323917E+02 -0.24931248148E+03  0.27451081946E+03  0.89174742730E+02 0.  0.
          5    1    3    3  502    0 -0.70616949923E+02  0.72480826647E+02 -0.25825316298E+03  0.27741126515E+03  0.47000000000E+01 0.  1.
         -5    1    3    3    0  502  0.26159168756E+02 -0.15289502730E+02 -0.21511288239E+02  0.37455260317E+02  0.47000000000E+01 0.  1.
          5    1    4    4  503    0  0.33539234992E+02 -0.14326637010E+02 -0.21555600114E+03  0.21867009956E+03  0.47000000000E+01 0. -1.
         -5    1    4    4    0  503  0.10918546176E+02 -0.42864686908E+02 -0.33756480332E+02  0.55840719898E+02  0.47000000000E+01 0.  1.
<mgrwt>
<rscale>  0 0.13643073E+03</rscale>
<asrwt>0</asrwt>
<pdfrwt beam="1">  1        2 0.46384935E-02 0.14447415E+03</pdfrwt>
<pdfrwt beam="2">  1       -2 0.86034940E-01 0.14447415E+03</pdfrwt>
<totfact> 0.20285513E+03</totfact>
</mgrwt>
</event>
<event>
 8    1  0.3551276E-004  0.1294959E+03  0.7546771E-02  0.1241602E+00
         -1   -1    0    0    0  501 -0.00000000000E+00  0.00000000000E+00  0.30844937095E+03  0.30844937095E+03  0.00000000000E+00 0.  1.
          1   -1    0    0  501    0  0.00000000000E+00 -0.00000000000E+00 -0.48805561871E+02  0.48805561871E+02  0.00000000000E+00 0. -1.
         25    2    1    2    0    0  0.33791236661E+02 -0.16221289259E+01  0.21075514503E+03  0.24735991206E+03  0.12499886384E+03 0.  0.
         23    2    1    2    0    0 -0.33791236661E+02  0.16221289259E+01  0.48888664050E+02  0.10989502076E+03  0.92424753924E+02 0.  0.
          5    1    3    3  502    0  0.65126043607E+02  0.18939615854E+02  0.56056290896E+02  0.88116447690E+02  0.47000000000E+01 0.  1.
         -5    1    3    3    0  502 -0.31334806946E+02 -0.20561744780E+02  0.15469885413E+03  0.15924346437E+03  0.47000000000E+01 0.  1.
          5    1    4    4  503    0 -0.97743892938E+01 -0.41376083885E+02  0.37754860748E+01  0.42940229375E+02  0.47000000000E+01 0. -1.
         -5    1    4    4    0  503 -0.24016847367E+02  0.42998212810E+02  0.45113177975E+02  0.66954791384E+02  0.47000000000E+01 0.  1.
<mgrwt>
<rscale>  0 0.12091069E+03</rscale>
<asrwt>0</asrwt>
<pdfrwt beam="1">  1        1 0.75085482E-02 0.12949593E+03</pdfrwt>
<pdfrwt beam="2">  1       -1 0.47453748E-01 0.12949593E+03</pdfrwt>
<totfact> 0.40996582E+03</totfact>
</mgrwt>
</event>
<event>
 8    1  0.3551276E-004  0.1279522E+03  0.7546771E-02  0.1244915E+00
         -2   -1    0    0    0  501 -0.00000000000E+00  0.00000000000E+00  0.56059352437E+02  0.56059352437E+02  0.00000000000E+00 0.  1.
          2   -1    0    0  501    0  0.00000000000E+00 -0.00000000000E+00 -0.28720153829E+03  0.28720153829E+03  0.00000000000E+00 0. -1.
         25    2    1    2    0    0 -0.22249811248E+02  0.15849418216E+02 -0.20939169025E+03  0.24539078672E+03  0.12500200039E+03 0.  0.
         23    2    1    2    0    0  0.22249811248E+02 -0.15849418216E+02 -0.21750495600E+02  0.97870104009E+02  0.91428742972E+02 0.  0.
          5    1    4    4  502    0  0.21901505889E+02  0.22442568951E+02 -0.43307857221E+02  0.53674997516E+02  0.47000000000E+01 0. -1.
         -5    1    4    4    0  502  0.34830535916E+00 -0.38291987167E+02  0.21557361621E+02  0.44195106493E+02  0.47000000000E+01 0.  1.
          5    1    3    3  503    0 -0.23706550509E+02 -0.53309614132E+02 -0.91375799833E+02  0.10851517079E+03  0.47000000000E+01 0.  1.
         -5    1    3    3    0  503  0.14567392612E+01  0.69159032349E+02 -0.11801589042E+03  0.13687561593E+03  0.47000000000E+01 0.  1.
<mgrwt>
<rscale>  0 0.11890457E+03</rscale>
<asrwt>0</asrwt>
<pdfrwt beam="1">  1        2 0.44184853E-01 0.12795217E+03</pdfrwt>
<pdfrwt beam="2">  1       -2 0.86245157E-02 0.12795217E+03</pdfrwt>
<totfact> 0.90829388E+03</totfact>
</mgrwt>
</event>
<event>
 8    1  0.3551276E-004  0.2141057E+03  0.7546771E-02  0.1141904E+00
          1   -1    0    0  501    0  0.00000000000E+00  0.00000000000E+00  0.53357083944E+03  0.53357083944E+03  0.00000000000E+00 0. -1.
         -1   -1    0    0    0  501 -0.00000000000E+00 -0.00000000000E+00 -0.86057186074E+02  0.86057186074E+02  0.00000000000E+00 0.  1.
         25    2    1    2    0    0 -0.30856574487E+02 -0.17107413542E+03  0.32111107869E+03  0.38594502650E+03  0.12499100215E+03 0.  0.
         23    2    1    2    0    0  0.30856574487E+02  0.17107413542E+03  0.12640257467E+03  0.23368299901E+03  0.91715021378E+02 0.  0.
          5    1    4    4  502    0  0.33908726280E+02  0.61008392166E+02  0.56278783719E+01  0.70182538053E+02  0.47000000000E+01 0. -1.
         -5    1    4    4    0  502 -0.30521517928E+01  0.11006574325E+03  0.12077469630E+03  0.16350046096E+03  0.47000000000E+01 0.  1.
          5    1    3    3  503    0 -0.68786739305E+02 -0.70092896863E+02  0.10197624037E+03  0.14165406205E+03  0.47000000000E+01 0.  1.
         -5    1    3    3    0  503  0.37930164818E+02 -0.10098123856E+03  0.21913483832E+03  0.24429096445E+03  0.47000000000E+01 0.  1.
<mgrwt>
<rscale>  0 0.20957376E+03</rscale>
<asrwt>0</asrwt>
<pdfrwt beam="1">  1        1 0.82087819E-01 0.21410567E+03</pdfrwt>
<pdfrwt beam="2">  1       -1 0.13239567E-01 0.21410567E+03</pdfrwt>
<totfact> 0.16154979E+03</totfact>
</mgrwt>
</event>
<event>
 8    1  0.3551276E-004  0.1261710E+03  0.7546771E-02  0.1244042E+00
         -2   -1    0    0    0  501 -0.00000000000E+00  0.00000000000E+00  0.98715350943E+02  0.98715350943E+02  0.00000000000E+00 0.  1.
          2   -1    0    0  501    0  0.00000000000E+00 -0.00000000000E+00 -0.13199348358E+03  0.13199348358E+03  0.00000000000E+00 0. -1.
         25    2    1    2    0    0  0.14465905522E+02 -0.92048344632E+01 -0.28254361510E+02  0.12929591290E+03  0.12500053099E+03 0.  0.
         23    2    1    2    0    0 -0.14465905522E+02  0.92048344632E+01 -0.50237711279E+01  0.10141292162E+03  0.99826604649E+02 0.  0.
          5    1    3    3  502    0  0.13994772150E+02 -0.38242810040E+02  0.38567657783E+02  0.56284281946E+02  0.47000000000E+01 0.  1.
         -5    1    3    3    0  502  0.47113337153E+00  0.29037975577E+02 -0.66822019293E+02  0.73011630955E+02  0.47000000000E+01 0.  1.
          5    1    4    4  503    0  0.23331831495E+02  0.41944569143E+02  0.94483927199E+01  0.49143497703E+02  0.47000000000E+01 0. -1.
         -5    1    4    4    0  503 -0.37797737016E+02 -0.32739734680E+02 -0.14472163848E+02  0.52269423920E+02  0.47000000000E+01 0.  1.
<mgrwt>
<rscale>  0 0.11942895E+03</rscale>
<asrwt>0</asrwt>
<pdfrwt beam="1">  1        2 0.20306690E-01 0.12617101E+03</pdfrwt>
<pdfrwt beam="2">  1       -2 0.15186977E-01 0.12617101E+03</pdfrwt>
<totfact> 0.85829035E+03</totfact>
</mgrwt>
</event>
<event>
 8    1  0.3551276E-004  0.1348498E+03  0.7546771E-02  0.1232664E+00
         -1   -1    0    0    0  501 -0.00000000000E+00  0.00000000000E+00  0.29997585423E+02  0.29997585423E+02  0.00000000000E+00 0.  1.
          1   -1    0    0  501    0  0.00000000000E+00 -0.00000000000E+00 -0.55522495268E+03  0.55522495268E+03  0.00000000000E+00 0. -1.
         25    2    1    2    0    0  0.47872108670E+02 -0.16374411799E+02 -0.18267317175E+03  0.22705497075E+03  0.12499844764E+03 0.  0.
         23    2    1    2    0    0 -0.47872108670E+02  0.16374411799E+02 -0.34255419551E+03  0.35816756735E+03  0.91546541694E+02 0.  0.
          5    1    4    4  502    0 -0.34592192979E+02 -0.34942022155E+02 -0.13039663956E+03  0.13943793722E+03  0.47000000000E+01 0. -1.
         -5    1    4    4    0  502 -0.13279915691E+02  0.51316433954E+02 -0.21215755594E+03  0.21872963013E+03  0.47000000000E+01 0.  1.
          5    1    3    3  503    0  0.57827314813E+02 -0.60730925712E+02 -0.86460804813E+02  0.12053963848E+03  0.47000000000E+01 0. -1.
         -5    1    3    3    0  503 -0.99552061434E+01  0.44356513913E+02 -0.96212366938E+02  0.10651533227E+03  0.47000000000E+01 0. -1.
<mgrwt>
<rscale>  0 0.12655172E+03</rscale>
<asrwt>0</asrwt>
<pdfrwt beam="1">  1        1 0.85419215E-01 0.13484981E+03</pdfrwt>
<pdfrwt beam="2">  1       -1 0.46150136E-02 0.13484981E+03</pdfrwt>
<totfact> 0.74529416E+03</totfact>
</mgrwt>
</event>
<event>
 8    1  0.3551276E-004  0.1277613E+03  0.7546771E-02  0.1245461E+00
         -2   -1    0    0    0  501 -0.00000000000E+00  0.00000000000E+00  0.10868312511E+03  0.10868312511E+03  0.00000000000E+00 0.  1.
          2   -1    0    0  501    0  0.00000000000E+00 -0.00000000000E+00 -0.11439230278E+03  0.11439230278E+03  0.00000000000E+00 0. -1.
         25    2    1    2    0    0  0.94510377298E+01  0.24670569111E+02  0.36393496751E+01  0.12781313305E+03  0.12499997208E+03 0.  0.
         23    2    1    2    0    0 -0.94510377298E+01 -0.24670569111E+02 -0.93485273466E+01  0.95262294845E+02  0.91046970083E+02 0.  0.
          5    1    3    3  502    0 -0.27619063144E+02 -0.25365483459E+02 -0.37332889349E+02  0.53123017866E+02  0.47000000000E+01 0.  1.
         -5    1    4    4    0  503 -0.44239706800E+02 -0.26157419023E+02  0.13506601710E+02  0.53346794819E+02  0.47000000000E+01 0.  1.
          5    1    4    4  503    0  0.34788669070E+02  0.14868499120E+01 -0.22855129057E+02  0.41915500027E+02  0.47000000000E+01 0. -1.
         -5    1    3    3    0  502  0.37070100874E+02  0.50036052570E+02  0.40972239024E+02  0.74690115184E+02  0.47000000000E+01 0.  1.
<mgrwt>
<rscale>  0 0.11857809E+03</rscale>
<asrwt>0</asrwt>
<pdfrwt beam="1">  1        2 0.17598816E-01 0.12776131E+03</pdfrwt>
<pdfrwt beam="2">  1       -2 0.16720481E-01 0.12776131E+03</pdfrwt>
<totfact> 0.86312510E+03</totfact>
</mgrwt>
</event>
<event>
 8    1  0.3551276E-004  0.1255339E+03  0.7546771E-02  0.1252148E+00
          3   -1    0    0  501    0  0.00000000000E+00  0.00000000000E+00  0.57102700313E+03  0.57102700313E+03  0.00000000000E+00 0. -1.
         -3   -1    0    0    0  501 -0.00000000000E+00 -0.00000000000E+00 -0.20572776564E+02  0.20572776564E+02  0.00000000000E+00 0.  1.
         25    2    1    2    0    0 -0.46645610116E+00 -0.11564411176E+02  0.37719487681E+03  0.39753583180E+03  0.12499923713E+03 0.  0.
         23    2    1    2    0    0  0.46645610116E+00  0.11564411176E+02  0.17325934975E+03  0.19406394790E+03  0.86649064675E+02 0.  0.
          5    1    4    4  502    0  0.12106580459E+02 -0.20981612459E+02  0.15027967414E+03  0.15229204776E+03  0.47000000000E+01 0. -1.
         -5    1    3    3    0  503  0.45610694634E+02  0.53726003951E+01  0.55995584850E+02  0.72572693368E+02  0.47000000000E+01 0.  1.
          5    1    3    3  503    0 -0.46077150735E+02 -0.16937011571E+02  0.32119929196E+03  0.32496313843E+03  0.47000000000E+01 0.  1.
         -5    1    4    4    0  502 -0.11640124358E+02  0.32546023635E+02  0.22979675612E+02  0.41771900134E+02  0.47000000000E+01 0.  1.
<mgrwt>
<rscale>  0 0.11467580E+03</rscale>
<asrwt>0</asrwt>
<pdfrwt beam="1">  1        3 0.87850296E-01 0.12553391E+03</pdfrwt>
<pdfrwt beam="2">  1       -3 0.31650430E-02 0.12553391E+03</pdfrwt>
<totfact> 0.12940986E+03</totfact>
</mgrwt>
</event>
<event>
 8    1  0.3551276E-004  0.1349588E+03  0.7546771E-02  0.1230110E+00
          2   -1    0    0  501    0  0.00000000000E+00  0.00000000000E+00  0.14337368210E+04  0.14337368210E+04  0.00000000000E+00 0.  1.
         -2   -1    0    0    0  501 -0.00000000000E+00 -0.00000000000E+00 -0.13178751040E+02  0.13178751040E+02  0.00000000000E+00 0. -1.
         25    2    1    2    0    0  0.21006110239E+02 -0.46340548650E+02  0.10949314668E+04  0.11032174715E+04  0.12500067747E+03 0.  0.
         23    2    1    2    0    0 -0.21006110239E+02  0.46340548650E+02  0.32562660310E+03  0.34369810046E+03  0.97503828107E+02 0.  0.
          5    1    4    4  502    0 -0.40955961885E+02 -0.13250537903E+02  0.91339412636E+02  0.10108385563E+03  0.47000000000E+01 0. -1.
         -5    1    4    4    0  502  0.19949851646E+02  0.59591086552E+02  0.23428719047E+03  0.24261424483E+03  0.47000000000E+01 0.  1.
          5    1    3    3  503    0  0.71954649719E+02 -0.42374214004E+02  0.67471814981E+03  0.67988213486E+03  0.47000000000E+01 0.  1.
         -5    1    3    3    0  503 -0.50948539479E+02 -0.39663346458E+01  0.42021331701E+03  0.42333533668E+03  0.47000000000E+01 0.  1.
<mgrwt>
<rscale>  0 0.12822707E+03</rscale>
<asrwt>0</asrwt>
<pdfrwt beam="1">  1        2 0.22057477E+00 0.13495878E+03</pdfrwt>
<pdfrwt beam="2">  1       -2 0.20275013E-02 0.13495878E+03</pdfrwt>
<totfact> 0.10912719E+04</totfact>
</mgrwt>
</event>
<event>
 8    1  0.3551276E-004  0.1425719E+03  0.7546771E-02  0.1220274E+00
          2   -1    0    0  501    0  0.00000000000E+00  0.00000000000E+00  0.29769456560E+02  0.29769456560E+02  0.00000000000E+00 0. -1.
         -2   -1    0    0    0  501 -0.00000000000E+00 -0.00000000000E+00 -0.84485382002E+03  0.84485382002E+03  0.00000000000E+00 0.  1.
         25    2    1    2    0    0 -0.66633537929E+02  0.16075834853E+02 -0.69197526826E+03  0.70651009124E+03  0.12501310446E+03 0.  0.
         23    2    1    2    0    0  0.66633537929E+02 -0.16075834853E+02 -0.12310909519E+03  0.16811318534E+03  0.91693690747E+02 0.  0.
          5    1    4    4  502    0  0.14845556488E+02 -0.31923630786E+02 -0.22491681455E+01  0.35590132162E+02  0.47000000000E+01 0. -1.
         -5    1    4    4    0  502  0.51787981441E+02  0.15847795933E+02 -0.12085992705E+03  0.13252305318E+03  0.47000000000E+01 0.  1.
          5    1    3    3  503    0  0.22853304861E+02  0.40702509663E+02 -0.30149280495E+03  0.30512123700E+03  0.47000000000E+01 0. -1.
         -5    1    3    3    0  503 -0.89486842790E+02 -0.24626674810E+02 -0.39048246332E+03  0.40138885423E+03  0.47000000000E+01 0. -1.
<mgrwt>
<rscale>  0 0.13496152E+03</rscale>
<asrwt>0</asrwt>
<pdfrwt beam="1">  1        2 0.45799166E-02 0.14257187E+03</pdfrwt>
<pdfrwt beam="2">  1       -2 0.12997751E+00 0.14257187E+03</pdfrwt>
<totfact> 0.78626337E+02</totfact>
</mgrwt>
</event>
<event>
 8    1  0.3551276E-004  0.2829019E+03  0.7546771E-02  0.1095954E+00
         -2   -1    0    0    0  501 -0.00000000000E+00  0.00000000000E+00  0.28157098653E+03  0.28157098653E+03  0.00000000000E+00 0.  1.
          2   -1    0    0  501    0  0.00000000000E+00 -0.00000000000E+00 -0.28928792268E+03  0.28928792268E+03  0.00000000000E+00 0. -1.
         25    2    1    2    0    0  0.25356814749E+03 -0.10573905271E+02 -0.75642402879E+02  0.29284000125E+03  0.12499952130E+03 0.  0.
         23    2    1    2    0    0 -0.25356814749E+03  0.10573905271E+02  0.67925466739E+02  0.27801890796E+03  0.90950707823E+02 0.  0.
          5    1    4    4  502    0 -0.81890703699E+02  0.45358588532E+02  0.32795166337E+02  0.99303080723E+02  0.47000000000E+01 0. -1.
         -5    1    3    3    0  503  0.16598568729E+02 -0.27850501718E+02  0.18036534497E+02  0.37397453208E+02  0.47000000000E+01 0. -1.
          5    1    3    3  503    0  0.23696957876E+03  0.17276596447E+02 -0.93678937377E+02  0.25544254805E+03  0.47000000000E+01 0. -1.
         -5    1    4    4    0  502 -0.17167744379E+03 -0.34784683261E+02  0.35130300402E+02  0.17871582723E+03  0.47000000000E+01 0.  1.
<mgrwt>
<rscale>  0 0.27951445E+03</rscale>
<asrwt>0</asrwt>
<pdfrwt beam="1">  1        2 0.44505834E-01 0.28290191E+03</pdfrwt>
<pdfrwt beam="2">  1       -2 0.43318613E-01 0.28290191E+03</pdfrwt>
<totfact> 0.58277891E+02</totfact>
</mgrwt>
</event>
<event>
 8    1  0.3551276E-004  0.1825058E+03  0.7546771E-02  0.1170941E+00
          2   -1    0    0  501    0  0.00000000000E+00  0.00000000000E+00  0.10480034011E+03  0.10480034011E+03  0.00000000000E+00 0. -1.
         -2   -1    0    0    0  501 -0.00000000000E+00 -0.00000000000E+00 -0.28318822083E+03  0.28318822083E+03  0.00000000000E+00 0.  1.
         25    2    1    2    0    0 -0.12862254081E+03 -0.33750845002E+02 -0.11180145771E+03  0.21402791648E+03  0.12500202216E+03 0.  0.
         23    2    1    2    0    0  0.12862254081E+03  0.33750845002E+02 -0.66586423014E+02  0.17396064446E+03  0.90253401874E+02 0.  0.
          5    1    3    3  502    0 -0.18761914571E+02 -0.36136807003E+02 -0.94082195449E+02  0.10262274484E+03  0.47000000000E+01 0.  1.
         -5    1    3    3    0  502 -0.10986062624E+03  0.23859620007E+01 -0.17719262258E+02  0.11140517163E+03  0.47000000000E+01 0.  1.
          5    1    4    4  503    0  0.26242547194E+02  0.50233592407E+02 -0.21762407521E+02  0.60891522156E+02  0.47000000000E+01 0. -1.
         -5    1    4    4    0  503  0.10237999361E+03 -0.16482747405E+02 -0.44824015493E+02  0.11306912231E+03  0.47000000000E+01 0.  1.
<mgrwt>
<rscale>  0 0.17679505E+03</rscale>
<asrwt>0</asrwt>
<pdfrwt beam="1">  1        2 0.16123129E-01 0.18250584E+03</pdfrwt>
<pdfrwt beam="2">  1       -2 0.43567419E-01 0.18250584E+03</pdfrwt>
<totfact> 0.17753008E+03</totfact>
</mgrwt>
</event>
<event>
 8    1  0.3551276E-004  0.1488481E+03  0.7546771E-02  0.1211026E+00
         -2   -1    0    0    0  501 -0.00000000000E+00  0.00000000000E+00  0.29493863175E+03  0.29493863175E+03  0.00000000000E+00 0.  1.
          2   -1    0    0  501    0  0.00000000000E+00 -0.00000000000E+00 -0.63656822946E+02  0.63656822946E+02  0.00000000000E+00 0. -1.
         25    2    1    2    0    0  0.13918528172E+02 -0.79599566782E+02  0.10100596182E+03  0.17988317494E+03  0.12500374332E+03 0.  0.
         23    2    1    2    0    0 -0.13918528172E+02  0.79599566782E+02  0.13027584698E+03  0.17871227976E+03  0.91850237729E+02 0.  0.
          5    1    3    3  502    0  0.50721463828E+02  0.40763175478E+01  0.12608340895E+02  0.52634052834E+02  0.47000000000E+01 0.  1.
         -5    1    3    3    0  502 -0.36802935656E+02 -0.83675884330E+02  0.88397620929E+02  0.12724912211E+03  0.47000000000E+01 0.  1.
          5    1    4    4  503    0  0.38108279445E+02  0.20769781776E+02  0.47397624876E+02  0.64437951869E+02  0.47000000000E+01 0. -1.
         -5    1    4    4    0  503 -0.52026807617E+02  0.58829785006E+02  0.82878222108E+02  0.11427432789E+03  0.47000000000E+01 0.  1.
<mgrwt>
<rscale>  0 0.14172507E+03</rscale>
<asrwt>0</asrwt>
<pdfrwt beam="1">  1        2 0.97933576E-02 0.14884808E+03</pdfrwt>
<pdfrwt beam="2">  1       -2 0.45375173E-01 0.14884808E+03</pdfrwt>
<totfact> 0.29583617E+03</totfact>
</mgrwt>
</event>
<event>
 8    1  0.3551276E-004  0.2340391E+03  0.7546771E-02  0.1126633E+00
          1   -1    0    0  501    0  0.00000000000E+00  0.00000000000E+00  0.32195394739E+03  0.32195394739E+03  0.00000000000E+00 0. -1.
         -1   -1    0    0    0  501 -0.00000000000E+00 -0.00000000000E+00 -0.16428272045E+03  0.16428272045E+03  0.00000000000E+00 0.  1.
         25    2    1    2    0    0 -0.29121831019E+02 -0.19570617720E+03  0.37518822506E+02  0.23702729598E+03  0.12500115264E+03 0.  0.
         23    2    1    2    0    0  0.29121831019E+02  0.19570617720E+03  0.12015240443E+03  0.24920937187E+03  0.92302339621E+02 0.  0.
          5    1    4    4  502    0  0.55121304518E+02  0.78145343615E+02  0.36229692469E+02  0.10237056978E+03  0.47000000000E+01 0. -1.
         -5    1    3    3    0  503  0.37584836173E+02 -0.47100376616E+02  0.42672383979E+02  0.73987078209E+02  0.47000000000E+01 0. -1.
          5    1    3    3  503    0 -0.66706667192E+02 -0.14860580058E+03 -0.51535614726E+01  0.16304021777E+03  0.47000000000E+01 0. -1.
         -5    1    4    4    0  502 -0.25999473499E+02  0.11756083358E+03  0.83922711964E+02  0.14683880209E+03  0.47000000000E+01 0.  1.
<mgrwt>
<rscale>  0 0.23000931E+03</rscale>
<asrwt>0</asrwt>
<pdfrwt beam="1">  1        1 0.49531376E-01 0.23403905E+03</pdfrwt>
<pdfrwt beam="2">  1       -1 0.25274265E-01 0.23403905E+03</pdfrwt>
<totfact> 0.10942658E+03</totfact>
</mgrwt>
</event>
<event>
 8    1  0.3551276E-004  0.1762253E+03  0.7546771E-02  0.1177522E+00
         -1   -1    0    0    0  501 -0.00000000000E+00  0.00000000000E+00  0.23637021695E+03  0.23637021695E+03  0.00000000000E+00 0.  1.
          1   -1    0    0  501    0  0.00000000000E+00 -0.00000000000E+00 -0.11754117449E+03  0.11754117449E+03  0.00000000000E+00 0. -1.
         25    2    1    2    0    0 -0.25902338567E+02  0.12148364517E+03  0.38221974934E+02  0.18032272608E+03  0.12500463585E+03 0.  0.
         23    2    1    2    0    0  0.25902338567E+02 -0.12148364517E+03  0.80607067524E+02  0.17358866536E+03  0.90588731195E+02 0.  0.
          5    1    4    4  502    0 -0.19630684276E+02 -0.11108482092E+02 -0.84715713422E+01  0.24548312784E+02  0.47000000000E+01 0. -1.
         -5    1    4    4    0  502  0.45533022843E+02 -0.11037516308E+03  0.89078638866E+02  0.14904035258E+03  0.47000000000E+01 0.  1.
          5    1    3    3  503    0 -0.46490461375E+02  0.11085955420E+02 -0.21980957237E+02  0.52815848829E+02  0.47000000000E+01 0.  1.
         -5    1    3    3    0  503  0.20588122809E+02  0.11039768975E+03  0.60202932170E+02  0.12750687725E+03  0.47000000000E+01 0.  1.
<mgrwt>
<rscale>  0 0.17031265E+03</rscale>
<asrwt>0</asrwt>
<pdfrwt beam="1">  1        1 0.18083258E-01 0.17622533E+03</pdfrwt>
<pdfrwt beam="2">  1       -1 0.36364649E-01 0.17622533E+03</pdfrwt>
<totfact> 0.20937039E+03</totfact>
</mgrwt>
</event>
<event>
 8    1  0.3551276E-004  0.1277241E+03  0.7546771E-02  0.1245887E+00
          1   -1    0    0  501    0  0.00000000000E+00  0.00000000000E+00  0.55706770241E+03  0.55706770241E+03  0.00000000000E+00 0. -1.
         -1   -1    0    0    0  501 -0.00000000000E+00 -0.00000000000E+00 -0.22572886255E+02  0.22572886255E+02  0.00000000000E+00 0.  1.
         25    2    1    2    0    0 -0.25825825681E+02 -0.44569108361E+01  0.26447061930E+03  0.29369739301E+03  0.12500645128E+03 0.  0.
         23    2    1    2    0    0  0.25825825681E+02  0.44569108361E+01  0.27002419685E+03  0.28594319565E+03  0.90352680797E+02 0.  0.
          5    1    3    3  502    0  0.39911229230E+02 -0.17958531837E+02  0.18210717005E+03  0.18735134499E+03  0.47000000000E+01 0. -1.
         -5    1    3    3    0  502 -0.65737054911E+02  0.13501621001E+02  0.82363449249E+02  0.10634604802E+03  0.47000000000E+01 0. -1.
          5    1    4    4  503    0  0.52692626004E+02  0.25660140520E+02  0.18675528863E+03  0.19579219463E+03  0.47000000000E+01 0. -1.
         -5    1    4    4    0  503 -0.26866800322E+02 -0.21203229684E+02  0.83268908217E+02  0.90151001017E+02  0.47000000000E+01 0.  1.
<mgrwt>
<rscale>  0 0.11832467E+03</rscale>
<asrwt>0</asrwt>
<pdfrwt beam="1">  1        1 0.85702713E-01 0.12772412E+03</pdfrwt>
<pdfrwt beam="2">  1       -1 0.34727522E-02 0.12772412E+03</pdfrwt>
<totfact> 0.11220250E+04</totfact>
</mgrwt>
</event>
<event>
 8    1  0.3551276E-004  0.1310925E+03  0.7546771E-02  0.1242994E+00
         -2   -1    0    0    0  501 -0.00000000000E+00  0.00000000000E+00  0.33878891989E+03  0.33878891989E+03  0.00000000000E+00 0.  1.
          2   -1    0    0  501    0  0.00000000000E+00 -0.00000000000E+00 -0.41481081684E+02  0.41481081684E+02  0.00000000000E+00 0. -1.
         25    2    1    2    0    0  0.25088067952E+02 -0.30502180729E+02  0.23458368798E+03  0.26872803710E+03  0.12500182829E+03 0.  0.
         23    2    1    2    0    0 -0.25088067952E+02  0.30502180729E+02  0.62724150228E+02  0.11154196447E+03  0.83351644459E+02 0.  0.
          5    1    3    3  502    0 -0.45137592561E+02 -0.35317197665E+02  0.13452086656E+03  0.14629648066E+03  0.47000000000E+01 0. -1.
         -5    1    4    4    0  503 -0.42330030341E+02 -0.92703647682E+01  0.49548284406E+02  0.65991617795E+02  0.47000000000E+01 0.  1.
          5    1    4    4  503    0  0.17241962389E+02  0.39772545497E+02  0.13175865821E+02  0.45550346678E+02  0.47000000000E+01 0. -1.
         -5    1    3    3    0  502  0.70225660513E+02  0.48150169366E+01  0.10006282142E+03  0.12243155644E+03  0.47000000000E+01 0. -1.
<mgrwt>
<rscale>  0 0.12006250E+03</rscale>
<asrwt>0</asrwt>
<pdfrwt beam="1">  1        2 0.63817051E-02 0.13109253E+03</pdfrwt>
<pdfrwt beam="2">  1       -2 0.52121370E-01 0.13109253E+03</pdfrwt>
<totfact> 0.38276137E+03</totfact>
</mgrwt>
</event>
<event>
 8    1  0.3551276E-004  0.2132033E+03  0.7546771E-02  0.1143388E+00
          2   -1    0    0  501    0  0.00000000000E+00  0.00000000000E+00  0.47289318625E+02  0.47289318625E+02  0.00000000000E+00 0. -1.
         -2   -1    0    0    0  501 -0.00000000000E+00 -0.00000000000E+00 -0.13891941024E+04  0.13891941024E+04  0.00000000000E+00 0.  1.
         25    2    1    2    0    0  0.17167383902E+03 -0.18919165864E+02 -0.25340209111E+03  0.33116198193E+03  0.12500318660E+03 0.  0.
         23    2    1    2    0    0 -0.17167383902E+03  0.18919165864E+02 -0.10885026927E+04  0.11053214391E+04  0.84068602550E+02 0.  0.
          5    1    4    4  502    0 -0.10299294217E+03 -0.28280430081E+02 -0.53704270395E+03  0.54758039111E+03  0.47000000000E+01 0. -1.
         -5    1    3    3    0  503  0.80335597825E+02 -0.11993805463E+02 -0.21827315101E+03  0.23294402353E+03  0.47000000000E+01 0. -1.
          5    1    3    3  503    0  0.91338241190E+02 -0.69253604017E+01 -0.35128940100E+02  0.98217958404E+02  0.47000000000E+01 0. -1.
         -5    1    4    4    0  502 -0.68680896849E+02  0.47199595945E+02 -0.55145998872E+03  0.55774104799E+03  0.47000000000E+01 0.  1.
<mgrwt>
<rscale>  0 0.20771595E+03</rscale>
<asrwt>0</asrwt>
<pdfrwt beam="1">  1        2 0.72752800E-02 0.21320328E+03</pdfrwt>
<pdfrwt beam="2">  1       -2 0.21372216E+00 0.21320328E+03</pdfrwt>
<totfact> 0.11400871E+02</totfact>
</mgrwt>
</event>
<event>
 8    1  0.3551276E-004  0.1253992E+03  0.7546771E-02  0.1249507E+00
          1   -1    0    0  501    0  0.00000000000E+00  0.00000000000E+00  0.50388725578E+03  0.50388725578E+03  0.00000000000E+00 0. -1.
         -1   -1    0    0    0  501 -0.00000000000E+00 -0.00000000000E+00 -0.23566613911E+02  0.23566613911E+02  0.00000000000E+00 0.  1.
         25    2    1    2    0    0 -0.71188266146E+01 -0.70119243452E+01  0.26857945607E+03  0.29641166324E+03  0.12500042041E+03 0.  0.
         23    2    1    2    0    0  0.71188266146E+01  0.70119243452E+01  0.21174118580E+03  0.23104220646E+03  0.91903898861E+02 0.  0.
          5    1    4    4  502    0  0.26554378963E+02 -0.20069766810E+02  0.18505679592E+03  0.18808518894E+03  0.47000000000E+01 0. -1.
         -5    1    4    4    0  502 -0.19435552349E+02  0.27081691155E+02  0.26684389879E+02  0.42957017519E+02  0.47000000000E+01 0.  1.
          5    1    3    3  503    0 -0.13044380618E+02 -0.64814470690E+02  0.12586812653E+03  0.14225310806E+03  0.47000000000E+01 0. -1.
         -5    1    3    3    0  503  0.59255540033E+01  0.57802546345E+02  0.14271132954E+03  0.15415855517E+03  0.47000000000E+01 0. -1.
<mgrwt>
<rscale>  0 0.11619633E+03</rscale>
<asrwt>0</asrwt>
<pdfrwt beam="1">  1        1 0.77521109E-01 0.12539916E+03</pdfrwt>
<pdfrwt beam="2">  1       -1 0.36256333E-02 0.12539916E+03</pdfrwt>
<totfact> 0.12007497E+04</totfact>
</mgrwt>
</event>
<event>
 8    1  0.3551276E-004  0.1491475E+03  0.7546771E-02  0.1209119E+00
          1   -1    0    0  501    0  0.00000000000E+00  0.00000000000E+00  0.68218403661E+03  0.68218403661E+03  0.00000000000E+00 0. -1.
         -1   -1    0    0    0  501 -0.00000000000E+00 -0.00000000000E+00 -0.27887544166E+02  0.27887544166E+02  0.00000000000E+00 0.  1.
         25    2    1    2    0    0 -0.56836858040E+02 -0.58205882933E+02  0.34683862545E+03  0.37754736007E+03  0.12500649483E+03 0.  0.
         23    2    1    2    0    0  0.56836858040E+02  0.58205882933E+02  0.30745786700E+03  0.33252422071E+03  0.97075558928E+02 0.  0.
          5    1    4    4  502    0  0.20823997323E+02  0.11747252089E+02  0.56548371728E+01  0.25014075629E+02  0.47000000000E+01 0.  1.
         -5    1    4    4    0  502  0.36012860717E+02  0.46458630844E+02  0.30180302982E+03  0.30751014508E+03  0.47000000000E+01 0. -1.
          5    1    3    3  503    0  0.26518975663E+02 -0.48849447623E+02  0.20726876749E+03  0.21464378999E+03  0.47000000000E+01 0.  1.
         -5    1    3    3    0  503 -0.83355833703E+02 -0.93564353100E+01  0.13956985796E+03  0.16290357008E+03  0.47000000000E+01 0.  1.
<mgrwt>
<rscale>  0 0.14317571E+03</rscale>
<asrwt>0</asrwt>
<pdfrwt beam="1">  1        1 0.10495138E+00 0.14914750E+03</pdfrwt>
<pdfrwt beam="2">  1       -1 0.42903919E-02 0.14914750E+03</pdfrwt>
<totfact> 0.62883957E+03</totfact>
</mgrwt>
</event>
<event>
 8    1  0.3551276E-004  0.1598710E+03  0.7546771E-02  0.1196915E+00
         -2   -1    0    0    0  501 -0.00000000000E+00  0.00000000000E+00  0.49710490848E+02  0.49710490848E+02  0.00000000000E+00 0.  1.
          2   -1    0    0  501    0  0.00000000000E+00 -0.00000000000E+00 -0.65843333057E+03  0.65843333057E+03  0.00000000000E+00 0. -1.
         25    2    1    2    0    0 -0.72161196074E+02  0.68751971781E+02 -0.52832703320E+03  0.55198567254E+03  0.12499862737E+03 0.  0.
         23    2    1    2    0    0  0.72161196074E+02 -0.68751971781E+02 -0.80395806525E+02  0.15615814887E+03  0.89374548450E+02 0.  0.
          5    1    4    4  502    0  0.23527615345E+02 -0.58298920679E+02 -0.85171063832E+02  0.10596467784E+03  0.47000000000E+01 0. -1.
         -5    1    4    4    0  502  0.48633580729E+02 -0.10453051102E+02  0.47752573067E+01  0.50193471032E+02  0.47000000000E+01 0.  1.
          5    1    3    3  503    0  0.11903124584E+02  0.30877326088E+02 -0.29170961351E+02  0.44363595744E+02  0.47000000000E+01 0. -1.
         -5    1    3    3    0  503 -0.84064320657E+02  0.37874645693E+02 -0.49915607185E+03  0.50762207680E+03  0.47000000000E+01 0. -1.
<mgrwt>
<rscale>  0 0.15293263E+03</rscale>
<asrwt>0</asrwt>
<pdfrwt beam="1">  1        2 0.10129743E+00 0.15987098E+03</pdfrwt>
<pdfrwt beam="2">  1       -2 0.76477685E-02 0.15987098E+03</pdfrwt>
<totfact> 0.44804514E+03</totfact>
</mgrwt>
</event>
<event>
 8    1  0.3551276E-004  0.1300584E+03  0.7546771E-02  0.1240927E+00
          2   -1    0    0  501    0  0.00000000000E+00  0.00000000000E+00  0.18566616961E+03  0.18566616961E+03  0.00000000000E+00 0. -1.
         -2   -1    0    0    0  501 -0.00000000000E+00 -0.00000000000E+00 -0.80324259697E+02  0.80324259697E+02  0.00000000000E+00 0.  1.
         25    2    1    2    0    0  0.17999935670E+02 -0.31094888355E+02  0.10555215018E+03  0.16750054740E+03  0.12499714880E+03 0.  0.
         23    2    1    2    0    0 -0.17999935670E+02  0.31094888355E+02 -0.21024026509E+00  0.98489881902E+02  0.91702360222E+02 0.  0.
          5    1    4    4  502    0  0.26297906525E+02  0.31785479281E+02  0.23822247513E+02  0.47869468947E+02  0.47000000000E+01 0. -1.
         -5    1    4    4    0  502 -0.44297842195E+02 -0.69059092521E+00 -0.24032487779E+02  0.50620412955E+02  0.47000000000E+01 0.  1.
          5    1    3    3  503    0  0.59072517799E+02 -0.19496916843E+02  0.10775134347E+03  0.12450756661E+03  0.47000000000E+01 0. -1.
         -5    1    3    3    0  503 -0.41072582129E+02 -0.11597971512E+02 -0.21991932885E+01  0.42992980789E+02  0.47000000000E+01 0. -1.
<mgrwt>
<rscale>  0 0.12132530E+03</rscale>
<asrwt>0</asrwt>
<pdfrwt beam="1">  1        2 0.28564026E-01 0.13005836E+03</pdfrwt>
<pdfrwt beam="2">  1       -2 0.12357578E-01 0.13005836E+03</pdfrwt>
<totfact> 0.82321349E+03</totfact>
</mgrwt>
</event>
<event>
 8    1  0.3551276E-004  0.1604484E+03  0.7546771E-02  0.1196079E+00
         -2   -1    0    0    0  501 -0.00000000000E+00  0.00000000000E+00  0.20247793387E+03  0.20247793387E+03  0.00000000000E+00 0.  1.
          2   -1    0    0  501    0  0.00000000000E+00 -0.00000000000E+00 -0.11399809075E+03  0.11399809075E+03  0.00000000000E+00 0. -1.
         25    2    1    2    0    0 -0.60978502837E+02 -0.80004331239E+02  0.84965047187E+02  0.18155648504E+03  0.12499850876E+03 0.  0.
         23    2    1    2    0    0  0.60978502837E+02  0.80004331239E+02  0.35147959323E+01  0.13491953958E+03  0.89843516991E+02 0.  0.
          5    1    4    4  502    0  0.44876229753E+02  0.67870249828E+02 -0.36935231477E+02  0.89479316788E+02  0.47000000000E+01 0. -1.
         -5    1    3    3    0  503 -0.38888391313E+02  0.26772697537E+02  0.44817745760E+02  0.65267178944E+02  0.47000000000E+01 0. -1.
          5    1    3    3  503    0 -0.22090111525E+02 -0.10677702878E+03  0.40147301427E+02  0.11628930610E+03  0.47000000000E+01 0. -1.
         -5    1    4    4    0  502  0.16102273084E+02  0.12134081411E+02  0.40450027410E+02  0.45440222794E+02  0.47000000000E+01 0.  1.
<mgrwt>
<rscale>  0 0.15363263E+03</rscale>
<asrwt>0</asrwt>
<pdfrwt beam="1">  1        2 0.17538168E-01 0.16044843E+03</pdfrwt>
<pdfrwt beam="2">  1       -2 0.31150451E-01 0.16044843E+03</pdfrwt>
<totfact> 0.30010741E+03</totfact>
</mgrwt>
</event>
<event>
 8    1  0.3551276E-004  0.1452834E+03  0.7546771E-02  0.1216686E+00
         -2   -1    0    0    0  501 -0.00000000000E+00  0.00000000000E+00  0.17457768428E+03  0.17457768428E+03  0.00000000000E+00 0.  1.
          2   -1    0    0  501    0  0.00000000000E+00 -0.00000000000E+00 -0.10863497779E+03  0.10863497779E+03  0.00000000000E+00 0. -1.
         25    2    1    2    0    0 -0.10238989414E+02 -0.73329043780E+02 -0.72719581617E+01  0.14546524942E+03  0.12500108738E+03 0.  0.
         23    2    1    2    0    0  0.10238989414E+02  0.73329043780E+02  0.73214664656E+02  0.13774741265E+03  0.90177475041E+02 0.  0.
          5    1    3    3  502    0  0.55837829396E+01  0.22136195244E+02 -0.37346294810E+02  0.44023011117E+02  0.47000000000E+01 0. -1.
         -5    1    4    4    0  503 -0.34799288531E+02  0.59884699993E+02  0.44864670344E+02  0.82656496542E+02  0.47000000000E+01 0.  1.
          5    1    4    4  503    0  0.45038277944E+02  0.13444343787E+02  0.28349994312E+02  0.55090916107E+02  0.47000000000E+01 0. -1.
         -5    1    3    3    0  502 -0.15822772353E+02 -0.95465239024E+02  0.30074336648E+02  0.10144223830E+03  0.47000000000E+01 0. -1.
<mgrwt>
<rscale>  0 0.13753398E+03</rscale>
<asrwt>0</asrwt>
<pdfrwt beam="1">  1        2 0.16713073E-01 0.14528337E+03</pdfrwt>
<pdfrwt beam="2">  1       -2 0.26858105E-01 0.14528337E+03</pdfrwt>
<totfact> 0.41157451E+03</totfact>
</mgrwt>
</event>
<event>
 8    1  0.3551276E-004  0.3934000E+03  0.7546771E-02  0.1047032E+00
          1   -1    0    0  501    0  0.00000000000E+00  0.00000000000E+00  0.69933071411E+02  0.69933071411E+02  0.00000000000E+00 0. -1.
         -1   -1    0    0    0  501 -0.00000000000E+00 -0.00000000000E+00 -0.21710829244E+04  0.21710829244E+04  0.00000000000E+00 0.  1.
         25    2    1    2    0    0 -0.35442178631E+03 -0.11628207343E+03 -0.96624491601E+03  0.10432606422E+04  0.12500882649E+03 0.  0.
         23    2    1    2    0    0  0.35442178631E+03  0.11628207343E+03 -0.11349049369E+04  0.11977553535E+04  0.86442743064E+02 0.  0.
          5    1    4    4  502    0  0.22017789799E+03  0.61915443635E+02 -0.56128806766E+03  0.60611732678E+03  0.47000000000E+01 0. -1.
         -5    1    3    3    0  503 -0.57640523024E+02  0.17899849940E+02 -0.23631550803E+03  0.24394660043E+03  0.47000000000E+01 0. -1.
          5    1    3    3  503    0 -0.29678126329E+03 -0.13418192337E+03 -0.72992940797E+03  0.79931404180E+03  0.47000000000E+01 0. -1.
         -5    1    4    4    0  502  0.13424388832E+03  0.54366629798E+02 -0.57361686927E+03  0.59163802675E+03  0.47000000000E+01 0.  1.
<mgrwt>
<rscale>  0 0.39074704E+03</rscale>
<asrwt>0</asrwt>
<pdfrwt beam="1">  1        1 0.10758936E-01 0.39339996E+03</pdfrwt>
<pdfrwt beam="2">  1       -1 0.33401270E+00 0.39339996E+03</pdfrwt>
<totfact> 0.13315687E+01</totfact>
</mgrwt>
</event>
<event>
 8    1  0.3551276E-004  0.2172632E+03  0.7546771E-02  0.1138899E+00
         -1   -1    0    0    0  501 -0.00000000000E+00  0.00000000000E+00  0.15014782419E+03  0.15014782419E+03  0.00000000000E+00 0.  1.
          1   -1    0    0  501    0  0.00000000000E+00 -0.00000000000E+00 -0.29837407503E+03  0.29837407503E+03  0.00000000000E+00 0. -1.
         25    2    1    2    0    0  0.16595854409E+03  0.63538779555E+02 -0.10679054220E+03  0.24208989817E+03  0.12499553603E+03 0.  0.
         23    2    1    2    0    0 -0.16595854409E+03 -0.63538779555E+02 -0.41435708634E+02  0.20643200105E+03  0.96528950292E+02 0.  0.
          5    1    3    3  502    0  0.39911020850E+02 -0.32468310465E+01 -0.89701357735E+02  0.98345590021E+02  0.47000000000E+01 0.  1.
         -5    1    3    3    0  502  0.12604752324E+03  0.66785610602E+02 -0.17089184464E+02  0.14374430815E+03  0.47000000000E+01 0.  1.
          5    1    4    4  503    0 -0.13032856160E+03 -0.45100680955E+02 -0.72124597401E+02  0.15570373452E+03  0.47000000000E+01 0. -1.
         -5    1    4    4    0  503 -0.35629982487E+02 -0.18438098600E+02  0.30688888766E+02  0.50728266535E+02  0.47000000000E+01 0.  1.
<mgrwt>
<rscale>  0 0.21340343E+03</rscale>
<asrwt>0</asrwt>
<pdfrwt beam="1">  1        1 0.45903703E-01 0.21726320E+03</pdfrwt>
<pdfrwt beam="2">  1       -1 0.23099666E-01 0.21726320E+03</pdfrwt>
<totfact> 0.13962842E+03</totfact>
</mgrwt>
</event>
<event>
 8    1  0.3551276E-004  0.1275032E+03  0.7546771E-02  0.1245899E+00
         -1   -1    0    0    0  501 -0.00000000000E+00  0.00000000000E+00  0.94687284916E+02  0.94687284916E+02  0.00000000000E+00 0.  1.
          1   -1    0    0  501    0  0.00000000000E+00 -0.00000000000E+00 -0.15509350659E+03  0.15509350659E+03  0.00000000000E+00 0. -1.
         25    2    1    2    0    0  0.23715957035E+01 -0.25045535978E+02  0.15625740247E+02  0.12845707421E+03  0.12499661123E+03 0.  0.
         23    2    1    2    0    0 -0.23715957035E+01  0.25045535978E+02 -0.76031961920E+02  0.12132371730E+03  0.91135513421E+02 0.  0.
          5    1    3    3  502    0 -0.10601881511E+02  0.49831151506E+02  0.98363223532E+01  0.52099777250E+02  0.47000000000E+01 0. -1.
         -5    1    3    3    0  502  0.12973477215E+02 -0.74876687484E+02  0.57894178935E+01  0.76357296961E+02  0.47000000000E+01 0. -1.
          5    1    4    4  503    0 -0.28100806028E+02  0.47598775431E+02 -0.27932215482E+02  0.62109559519E+02  0.47000000000E+01 0. -1.
         -5    1    4    4    0  503  0.25729210325E+02 -0.22553239453E+02 -0.48099746439E+02  0.59214157777E+02  0.47000000000E+01 0.  1.
<mgrwt>
<rscale>  0 0.11831759E+03</rscale>
<asrwt>0</asrwt>
<pdfrwt beam="1">  1        1 0.23860539E-01 0.12750316E+03</pdfrwt>
<pdfrwt beam="2">  1       -1 0.14567275E-01 0.12750316E+03</pdfrwt>
<totfact> 0.64720621E+03</totfact>
</mgrwt>
</event>
<event>
 8    1  0.3551276E-004  0.1340010E+03  0.7546771E-02  0.1234199E+00
          4   -1    0    0  501    0  0.00000000000E+00  0.00000000000E+00  0.55739817077E+03  0.55739817077E+03  0.00000000000E+00 0.  1.
         -4   -1    0    0    0  501 -0.00000000000E+00 -0.00000000000E+00 -0.32477673098E+02  0.32477673098E+02  0.00000000000E+00 0. -1.
         25    2    1    2    0    0  0.25329317134E+01 -0.48215113016E+02  0.42705814466E+03  0.44758788736E+03  0.12500058046E+03 0.  0.
         23    2    1    2    0    0 -0.25329317134E+01  0.48215113016E+02  0.97862353006E+02  0.14228795651E+03  0.91311059386E+02 0.  0.
          5    1    3    3  502    0 -0.54536228764E+02 -0.52106882592E+02  0.21480212934E+03  0.22770896388E+03  0.47000000000E+01 0.  1.
         -5    1    3    3    0  502  0.57069160478E+02  0.38917695763E+01  0.21225601532E+03  0.21987892348E+03  0.47000000000E+01 0.  1.
          5    1    4    4  503    0 -0.33714208282E+02  0.12673868611E+02  0.33159096000E+01  0.36474100977E+02  0.47000000000E+01 0. -1.
         -5    1    4    4    0  503  0.31181276569E+02  0.35541244405E+02  0.94546443406E+02  0.10581385553E+03  0.47000000000E+01 0.  1.
<mgrwt>
<rscale>  0 0.12555832E+03</rscale>
<asrwt>0</asrwt>
<pdfrwt beam="1">  1        4 0.85753557E-01 0.13400096E+03</pdfrwt>
<pdfrwt beam="2">  1       -4 0.49965655E-02 0.13400096E+03</pdfrwt>
<totfact> 0.48210650E+02</totfact>
</mgrwt>
</event>
<event>
 8    1  0.3551276E-004  0.1532501E+03  0.7546771E-02  0.1204747E+00
         -1   -1    0    0    0  501 -0.00000000000E+00  0.00000000000E+00  0.11081141334E+02  0.11081141334E+02  0.00000000000E+00 0.  1.
          1   -1    0    0  501    0  0.00000000000E+00 -0.00000000000E+00 -0.17877961557E+04  0.17877961557E+04  0.00000000000E+00 0. -1.
         25    2    1    2    0    0  0.86487551912E+02  0.19488889054E+02 -0.95928068075E+03  0.97144481568E+03  0.12500276803E+03 0.  0.
         23    2    1    2    0    0 -0.86487551912E+02 -0.19488889054E+02 -0.81743433359E+03  0.82743248133E+03  0.92659095593E+02 0.  0.
          5    1    3    3  502    0  0.25556286160E+02  0.69356701504E+02 -0.49542438103E+03  0.50093001819E+03  0.47000000000E+01 0.  1.
         -5    1    3    3    0  502  0.60931265752E+02 -0.49867812450E+02 -0.46385629972E+03  0.47051479749E+03  0.47000000000E+01 0.  1.
          5    1    4    4  503    0 -0.51596373755E+02 -0.46806415509E+02 -0.66391966067E+03  0.66758103039E+03  0.47000000000E+01 0. -1.
         -5    1    4    4    0  503 -0.34891178157E+02  0.27317526455E+02 -0.15351467293E+03  0.15985145094E+03  0.47000000000E+01 0.  1.
<mgrwt>
<rscale>  0 0.14657400E+03</rscale>
<asrwt>0</asrwt>
<pdfrwt beam="1">  1        1 0.27504580E+00 0.15325014E+03</pdfrwt>
<pdfrwt beam="2">  1       -1 0.17047895E-02 0.15325014E+03</pdfrwt>
<totfact> 0.39826572E+03</totfact>
</mgrwt>
</event>
<event>
 8    1  0.3551276E-004  0.1357165E+03  0.7546771E-02  0.1232586E+00
          1   -1    0    0  501    0  0.00000000000E+00  0.00000000000E+00  0.56425034268E+02  0.56425034268E+02  0.00000000000E+00 0.  1.
         -1   -1    0    0    0  501 -0.00000000000E+00 -0.00000000000E+00 -0.25287863137E+03  0.25287863137E+03  0.00000000000E+00 0. -1.
         25    2    1    2    0    0 -0.14823505712E+02 -0.50781477886E+02 -0.12079254949E+03  0.18168598132E+03  0.12498184259E+03 0.  0.
         23    2    1    2    0    0  0.14823505712E+02  0.50781477886E+02 -0.75661047606E+02  0.12761768432E+03  0.88108934890E+02 0.  0.
          5    1    4    4  502    0  0.85727135511E+01  0.28496173303E+02 -0.93362354366E+02  0.98102714149E+02  0.47000000000E+01 0. -1.
         -5    1    4    4    0  502  0.62507921610E+01  0.22285304582E+02  0.17701306760E+02  0.29514970167E+02  0.47000000000E+01 0.  1.
          5    1    3    3  503    0 -0.42958986484E+02 -0.13752013124E+02 -0.12669970666E+03  0.13457153508E+03  0.47000000000E+01 0. -1.
         -5    1    3    3    0  503  0.28135480772E+02 -0.37029464762E+02  0.59071571709E+01  0.47114446241E+02  0.47000000000E+01 0. -1.
<mgrwt>
<rscale>  0 0.12660213E+03</rscale>
<asrwt>0</asrwt>
<pdfrwt beam="1">  1        1 0.86807743E-02 0.13571645E+03</pdfrwt>
<pdfrwt beam="2">  1       -1 0.38904406E-01 0.13571645E+03</pdfrwt>
<totfact> 0.48163245E+03</totfact>
</mgrwt>
</event>
<event>
 8    1  0.3551276E-004  0.1967918E+03  0.7546771E-02  0.1156728E+00
         -2   -1    0    0    0  501 -0.00000000000E+00  0.00000000000E+00  0.28060017764E+03  0.28060017764E+03  0.00000000000E+00 0.  1.
          2   -1    0    0  501    0  0.00000000000E+00 -0.00000000000E+00 -0.12537237171E+03  0.12537237171E+03  0.00000000000E+00 0. -1.
         25    2    1    2    0    0  0.50295346630E+02  0.14343944512E+03  0.73914156621E+02  0.21021489248E+03  0.12499000826E+03 0.  0.
         23    2    1    2    0    0 -0.50295346630E+02 -0.14343944512E+03  0.81313649318E+02  0.19575765687E+03  0.92761276125E+02 0.  0.
          5    1    3    3  502    0  0.60645023544E+02  0.91400571824E+02 -0.10615257754E+02  0.11030257072E+03  0.47000000000E+01 0. -1.
         -5    1    3    3    0  502 -0.10349676914E+02  0.52038873292E+02  0.84529414375E+02  0.99912321764E+02  0.47000000000E+01 0. -1.
          5    1    4    4  503    0 -0.54226071928E+02 -0.27785121287E+02  0.17710012612E+02  0.63625579670E+02  0.47000000000E+01 0. -1.
         -5    1    4    4    0  503  0.39307252981E+01 -0.11565432383E+03  0.63603636706E+02  0.13213207720E+03  0.47000000000E+01 0.  1.
<mgrwt>
<rscale>  0 0.19193460E+03</rscale>
<asrwt>0</asrwt>
<pdfrwt beam="1">  1        2 0.19288057E-01 0.19679176E+03</pdfrwt>
<pdfrwt beam="2">  1       -2 0.43169258E-01 0.19679176E+03</pdfrwt>
<totfact> 0.14720856E+03</totfact>
</mgrwt>
</event>
<event>
 8    1  0.3551276E-004  0.1254489E+03  0.7546771E-02  0.1249925E+00
          1   -1    0    0  501    0  0.00000000000E+00  0.00000000000E+00  0.26695678151E+02  0.26695678151E+02  0.00000000000E+00 0. -1.
         -1   -1    0    0    0  501 -0.00000000000E+00 -0.00000000000E+00 -0.44251032282E+03  0.44251032282E+03  0.00000000000E+00 0.  1.
         25    2    1    2    0    0 -0.65932152352E+01  0.82885419529E+01 -0.25357090963E+03  0.28290569705E+03  0.12500102719E+03 0.  0.
         23    2    1    2    0    0  0.65932152352E+01 -0.82885419529E+01 -0.16224373504E+03  0.18630030392E+03  0.90953852399E+02 0.  0.
          5    1    4    4  502    0  0.47252290320E+02 -0.15591347891E+02 -0.87026080068E+02  0.10035685169E+03  0.47000000000E+01 0. -1.
         -5    1    3    3    0  503 -0.49092772375E+02 -0.19848146112E+02 -0.49936983981E+02  0.72937244071E+02  0.47000000000E+01 0. -1.
          5    1    3    3  503    0  0.42499557140E+02  0.28136688065E+02 -0.20363392565E+03  0.20996845298E+03  0.47000000000E+01 0. -1.
         -5    1    4    4    0  502 -0.40659075085E+02  0.73028059384E+01 -0.75217654971E+02  0.85943452227E+02  0.47000000000E+01 0.  1.
<mgrwt>
<rscale>  0 0.11595422E+03</rscale>
<asrwt>0</asrwt>
<pdfrwt beam="1">  1        1 0.41070277E-02 0.12544890E+03</pdfrwt>
<pdfrwt beam="2">  1       -1 0.68078506E-01 0.12544890E+03</pdfrwt>
<totfact> 0.47198440E+03</totfact>
</mgrwt>
</event>
<event>
 8    1  0.3551276E-004  0.1716004E+03  0.7546771E-02  0.1182588E+00
          2   -1    0    0  501    0  0.00000000000E+00  0.00000000000E+00  0.62661630638E+03  0.62661630638E+03  0.00000000000E+00 0. -1.
         -2   -1    0    0    0  501 -0.00000000000E+00 -0.00000000000E+00 -0.42286716483E+02  0.42286716483E+02  0.00000000000E+00 0.  1.
         25    2    1    2    0    0  0.70391628361E+02  0.94160060074E+02  0.25211209087E+03  0.30497080395E+03  0.12500234656E+03 0.  0.
         23    2    1    2    0    0 -0.70391628361E+02 -0.94160060074E+02  0.33221749903E+03  0.36393221891E+03  0.90868559154E+02 0.  0.
          5    1    4    4  502    0 -0.10949419804E+02 -0.59103288338E+02  0.24660695992E+03  0.25387038261E+03  0.47000000000E+01 0. -1.
         -5    1    4    4    0  502 -0.59442208557E+02 -0.35056771736E+02  0.85610539108E+02  0.11006183630E+03  0.47000000000E+01 0.  1.
          5    1    3    3  503    0  0.42776513878E+02 -0.11212844311E+02  0.20480042806E+02  0.48959985401E+02  0.47000000000E+01 0.  1.
         -5    1    3    3    0  503  0.27615114483E+02  0.10537290438E+03  0.23163204806E+03  0.25601081855E+03  0.47000000000E+01 0.  1.
<mgrwt>
<rscale>  0 0.16553281E+03</rscale>
<asrwt>0</asrwt>
<pdfrwt beam="1">  1        2 0.96402502E-01 0.17160036E+03</pdfrwt>
<pdfrwt beam="2">  1       -2 0.65056491E-02 0.17160036E+03</pdfrwt>
<totfact> 0.61075578E+03</totfact>
</mgrwt>
</event>
<event>
 8    1  0.3551276E-004  0.1780705E+03  0.7546771E-02  0.1175519E+00
         -1   -1    0    0    0  501 -0.00000000000E+00  0.00000000000E+00  0.17733249619E+03  0.17733249619E+03  0.00000000000E+00 0.  1.
          1   -1    0    0  501    0  0.00000000000E+00 -0.00000000000E+00 -0.18982604733E+03  0.18982604733E+03  0.00000000000E+00 0. -1.
         25    2    1    2    0    0 -0.94214987603E+02 -0.84893418372E+02 -0.82493377816E+02  0.19625049952E+03  0.12500297919E+03 0.  0.
         23    2    1    2    0    0  0.94214987603E+02  0.84893418372E+02  0.69999826680E+02  0.17090804400E+03  0.90698552348E+02 0.  0.
          5    1    4    4  502    0  0.96482834172E+02  0.56359910832E+02  0.20741995830E+02  0.11374399865E+03  0.47000000000E+01 0. -1.
         -5    1    3    3    0  503 -0.12085804630E+03 -0.46883087289E+02 -0.72257474716E+02  0.14848543323E+03  0.47000000000E+01 0.  1.
          5    1    3    3  503    0  0.26643058692E+02 -0.38010331083E+02 -0.10235903100E+02  0.47765066292E+02  0.47000000000E+01 0.  1.
         -5    1    4    4    0  502 -0.22678465693E+01  0.28533507540E+02  0.49257830850E+02  0.57164045349E+02  0.47000000000E+01 0.  1.
<mgrwt>
<rscale>  0 0.17225275E+03</rscale>
<asrwt>0</asrwt>
<pdfrwt beam="1">  1        1 0.29204007E-01 0.17807049E+03</pdfrwt>
<pdfrwt beam="2">  1       -1 0.27281922E-01 0.17807049E+03</pdfrwt>
<totfact> 0.18577415E+03</totfact>
</mgrwt>
</event>
<event>
 8    1  0.3551276E-004  0.2373122E+03  0.7546771E-02  0.1124491E+00
         -3   -1    0    0    0  501 -0.00000000000E+00  0.00000000000E+00  0.21369676849E+03  0.21369676849E+03  0.00000000000E+00 0.  1.
          3   -1    0    0  501    0  0.00000000000E+00 -0.00000000000E+00 -0.24715356592E+03  0.24715356592E+03  0.00000000000E+00 0. -1.
         25    2    1    2    0    0 -0.15949795695E+03 -0.12347641442E+03  0.12072206366E+01  0.23731524443E+03  0.12502417634E+03 0.  0.
         23    2    1    2    0    0  0.15949795695E+03  0.12347641442E+03 -0.34664018070E+02  0.22353508998E+03  0.89890595246E+02 0.  0.
          5    1    4    4  502    0  0.10168451903E+03  0.64432378772E+02 -0.63127264322E+02  0.13600887598E+03  0.47000000000E+01 0. -1.
         -5    1    3    3    0  503 -0.13575141504E+03 -0.10614522346E+03  0.50585717345E+02  0.17965594882E+03  0.47000000000E+01 0.  1.
          5    1    3    3  503    0 -0.23746541910E+02 -0.17331190960E+02 -0.49378496708E+02  0.57659295608E+02  0.47000000000E+01 0.  1.
         -5    1    4    4    0  502  0.57813437919E+02  0.59044035649E+02  0.28463246251E+02  0.87526213998E+02  0.47000000000E+01 0.  1.
<mgrwt>
<rscale>  0 0.23308001E+03</rscale>
<asrwt>0</asrwt>
<pdfrwt beam="1">  1        3 0.38023626E-01 0.23731217E+03</pdfrwt>
<pdfrwt beam="2">  1       -3 0.32876426E-01 0.23731217E+03</pdfrwt>
<totfact> 0.15374074E+02</totfact>
</mgrwt>
</event>
<event>
 8    1  0.3551276E-004  0.2049872E+03  0.7546771E-02  0.1149549E+00
         -2   -1    0    0    0  501 -0.00000000000E+00  0.00000000000E+00  0.60498140254E+03  0.60498140254E+03  0.00000000000E+00 0.  1.
          2   -1    0    0  501    0  0.00000000000E+00 -0.00000000000E+00 -0.63492664303E+02  0.63492664303E+02  0.00000000000E+00 0. -1.
         25    2    1    2    0    0  0.16206179947E+03  0.11250488979E+02  0.26839064482E+03  0.33771779179E+03  0.12501667212E+03 0.  0.
         23    2    1    2    0    0 -0.16206179947E+03 -0.11250488979E+02  0.27309809341E+03  0.33075627506E+03  0.91796211871E+02 0.  0.
          5    1    3    3  502    0  0.44373069522E+02 -0.37801116984E+02  0.26424199239E+02  0.64173374927E+02  0.47000000000E+01 0.  1.
         -5    1    3    3    0  502  0.11768872995E+03  0.49051605963E+02  0.24196644559E+03  0.27354441686E+03  0.47000000000E+01 0.  1.
          5    1    4    4  503    0 -0.11507670514E+03 -0.40046454296E+02  0.13457890251E+03  0.18160379283E+03  0.47000000000E+01 0. -1.
         -5    1    4    4    0  503 -0.46985094332E+02  0.28795965317E+02  0.13851919090E+03  0.14915248223E+03  0.47000000000E+01 0.  1.
<mgrwt>
<rscale>  0 0.20022544E+03</rscale>
<asrwt>0</asrwt>
<pdfrwt beam="1">  1        2 0.97681026E-02 0.20498724E+03</pdfrwt>
<pdfrwt beam="2">  1       -2 0.93074058E-01 0.20498724E+03</pdfrwt>
<totfact> 0.66379436E+02</totfact>
</mgrwt>
</event>
<event>
 8    1  0.3551276E-004  0.1308417E+03  0.7546771E-02  0.1239251E+00
         -2   -1    0    0    0  501 -0.00000000000E+00  0.00000000000E+00  0.36139704206E+03  0.36139704206E+03  0.00000000000E+00 0.  1.
          2   -1    0    0  501    0  0.00000000000E+00 -0.00000000000E+00 -0.62865416062E+02  0.62865416062E+02  0.00000000000E+00 0. -1.
         25    2    1    2    0    0 -0.21785315402E+02  0.31978061569E+02  0.29658619153E+03  0.32416494472E+03  0.12498938350E+03 0.  0.
         23    2    1    2    0    0  0.21785315402E+02 -0.31978061569E+02  0.19454344600E+01  0.10009751340E+03  0.92295888775E+02 0.  0.
          5    1    4    4  502    0 -0.20755796843E+02  0.22378774970E+02 -0.11493823980E+00  0.30882290759E+02  0.47000000000E+01 0. -1.
         -5    1    4    4    0  502  0.42541112245E+02 -0.54356836539E+02  0.20603726998E+01  0.69215222641E+02  0.47000000000E+01 0.  1.
          5    1    3    3  503    0 -0.41963652714E+02  0.55343128718E+02  0.28055543068E+03  0.28906270899E+03  0.47000000000E+01 0.  1.
         -5    1    3    3    0  503  0.20178337312E+02 -0.23365067149E+02  0.16030760857E+02  0.35102235730E+02  0.47000000000E+01 0.  1.
<mgrwt>
<rscale>  0 0.12236152E+03</rscale>
<asrwt>0</asrwt>
<pdfrwt beam="1">  1        2 0.96716027E-02 0.13084167E+03</pdfrwt>
<pdfrwt beam="2">  1       -2 0.55599544E-01 0.13084167E+03</pdfrwt>
<totfact> 0.19945659E+03</totfact>
</mgrwt>
</event>
<event>
 8    1  0.3551276E-004  0.1654647E+03  0.7546771E-02  0.1189670E+00
          2   -1    0    0  501    0  0.00000000000E+00  0.00000000000E+00  0.17261872065E+03  0.17261872065E+03  0.00000000000E+00 0.  1.
         -2   -1    0    0    0  501 -0.00000000000E+00 -0.00000000000E+00 -0.14461723724E+03  0.14461723724E+03  0.00000000000E+00 0. -1.
         25    2    1    2    0    0  0.16825525845E+02 -0.10710803016E+03 -0.22346951269E+02  0.16696691681E+03  0.12499334635E+03 0.  0.
         23    2    1    2    0    0 -0.16825525845E+02  0.10710803016E+03  0.50348434677E+02  0.15026904108E+03  0.91052684674E+02 0.  0.
          5    1    3    3  502    0  0.40867958700E+02 -0.12722417795E+03 -0.19779564269E+02  0.13516472419E+03  0.47000000000E+01 0. -1.
         -5    1    3    3    0  502 -0.24042432855E+02  0.20116147784E+02 -0.25673870002E+01  0.31802192617E+02  0.47000000000E+01 0. -1.
          5    1    4    4  503    0  0.62932567232E+01  0.55440277320E+02 -0.20353038190E+02  0.59578230865E+02  0.47000000000E+01 0. -1.
         -5    1    4    4    0  503 -0.23118782569E+02  0.51667752843E+02  0.70701472867E+02  0.90690810211E+02  0.47000000000E+01 0.  1.
<mgrwt>
<rscale>  0 0.15914096E+03</rscale>
<asrwt>0</asrwt>
<pdfrwt beam="1">  1        2 0.26556726E-01 0.16546469E+03</pdfrwt>
<pdfrwt beam="2">  1       -2 0.22248806E-01 0.16546469E+03</pdfrwt>
<totfact> 0.34137212E+03</totfact>
</mgrwt>
</event>
<event>
 8    1  0.3551276E-004  0.1350059E+03  0.7546771E-02  0.1231374E+00
          2   -1    0    0  501    0  0.00000000000E+00  0.00000000000E+00  0.15320291777E+04  0.15320291777E+04  0.00000000000E+00 0. -1.
         -2   -1    0    0    0  501 -0.00000000000E+00 -0.00000000000E+00 -0.95610676442E+01  0.95610676442E+01  0.00000000000E+00 0.  1.
         25    2    1    2    0    0  0.42399431165E+02  0.28374544014E+02  0.85693412429E+03  0.86750370650E+03  0.12499504351E+03 0.  0.
         23    2    1    2    0    0 -0.42399431165E+02 -0.28374544014E+02  0.66553398577E+03  0.67408653885E+03  0.94097551159E+02 0.  0.
          5    1    4    4  502    0 -0.37639010241E+02 -0.50605736282E+02  0.61756521888E+03  0.62079507505E+03  0.47000000000E+01 0. -1.
         -5    1    3    3    0  503 -0.96029342225E+01  0.66959237894E+02  0.35819740982E+03  0.36455895310E+03  0.47000000000E+01 0. -1.
          5    1    3    3  503    0  0.52002365388E+02 -0.38584693880E+02  0.49873671448E+03  0.50294475340E+03  0.47000000000E+01 0. -1.
         -5    1    4    4    0  502 -0.47604209242E+01  0.22231192268E+02  0.47968766888E+02  0.53291463799E+02  0.47000000000E+01 0.  1.
<mgrwt>
<rscale>  0 0.12739407E+03</rscale>
<asrwt>0</asrwt>
<pdfrwt beam="1">  1        2 0.23569660E+00 0.13500588E+03</pdfrwt>
<pdfrwt beam="2">  1       -2 0.14709347E-02 0.13500588E+03</pdfrwt>
<totfact> 0.15424784E+04</totfact>
</mgrwt>
</event>
<event>
 8    1  0.3551276E-004  0.1604603E+03  0.7546771E-02  0.1198467E+00
         -1   -1    0    0    0  501 -0.00000000000E+00  0.00000000000E+00  0.27668329096E+03  0.27668329096E+03  0.00000000000E+00 0.  1.
          1   -1    0    0  501    0  0.00000000000E+00 -0.00000000000E+00 -0.75958686086E+02  0.75958686086E+02  0.00000000000E+00 0. -1.
         25    2    1    2    0    0 -0.27357827174E+02  0.96825770313E+02  0.93839865421E+02  0.18588550597E+03  0.12499528184E+03 0.  0.
         23    2    1    2    0    0  0.27357827174E+02 -0.96825770313E+02  0.10688473945E+03  0.16675647108E+03  0.79118219238E+02 0.  0.
          5    1    4    4  502    0  0.26689559327E+02 -0.28759415560E+02 -0.51029853353E+00  0.39519450465E+02  0.47000000000E+01 0. -1.
         -5    1    3    3    0  503  0.81133514760E+01  0.27937976138E+02 -0.28500034358E+02  0.40996328388E+02  0.47000000000E+01 0.  1.
          5    1    3    3  503    0 -0.35471178650E+02  0.68887794175E+02  0.12233989978E+03  0.14488917758E+03  0.47000000000E+01 0.  1.
         -5    1    4    4    0  502  0.66826784704E+00 -0.68066354752E+02  0.10739503799E+03  0.12723702062E+03  0.47000000000E+01 0.  1.
<mgrwt>
<rscale>  0 0.15164429E+03</rscale>
<asrwt>0</asrwt>
<pdfrwt beam="1">  1        1 0.11685952E-01 0.16046028E+03</pdfrwt>
<pdfrwt beam="2">  1       -1 0.42566660E-01 0.16046028E+03</pdfrwt>
<totfact> 0.27955906E+03</totfact>
</mgrwt>
</event>
<event>
 8    1  0.3551276E-004  0.1472554E+03  0.7546771E-02  0.1213667E+00
          2   -1    0    0  501    0  0.00000000000E+00  0.00000000000E+00  0.82927439805E+03  0.82927439805E+03  0.00000000000E+00 0.  1.
         -2   -1    0    0    0  501 -0.00000000000E+00 -0.00000000000E+00 -0.21445674278E+02  0.21445674278E+02  0.00000000000E+00 0. -1.
         25    2    1    2    0    0  0.39254142846E+02  0.67223064889E+02  0.45000746819E+03  0.47348799977E+03  0.12499734521E+03 0.  0.
         23    2    1    2    0    0 -0.39254142846E+02 -0.67223064889E+02  0.35782125558E+03  0.37723207256E+03  0.90598882121E+02 0.  0.
          5    1    4    4  502    0  0.22380012912E+02 -0.28770228048E+01  0.13934178384E+03  0.14123514068E+03  0.47000000000E+01 0. -1.
         -5    1    3    3    0  503  0.25275423951E+02 -0.34605506356E+02  0.10625764042E+03  0.11466980542E+03  0.47000000000E+01 0. -1.
          5    1    3    3  503    0  0.13978718896E+02  0.10182857125E+03  0.34374982777E+03  0.35881819435E+03  0.47000000000E+01 0. -1.
         -5    1    4    4    0  502 -0.61634155759E+02 -0.64346042085E+02  0.21847947174E+03  0.23599693189E+03  0.47000000000E+01 0.  1.
<mgrwt>
<rscale>  0 0.13974904E+03</rscale>
<asrwt>0</asrwt>
<pdfrwt beam="1">  1        2 0.12758065E+00 0.14725544E+03</pdfrwt>
<pdfrwt beam="2">  1       -2 0.32993351E-02 0.14725544E+03</pdfrwt>
<totfact> 0.11974401E+04</totfact>
</mgrwt>
</event>
<event>
 8    1  0.3551276E-004  0.1566787E+03  0.7546771E-02  0.1201005E+00
         -1   -1    0    0    0  501 -0.00000000000E+00  0.00000000000E+00  0.38450544155E+02  0.38450544155E+02  0.00000000000E+00 0.  1.
          1   -1    0    0  501    0  0.00000000000E+00 -0.00000000000E+00 -0.67197568283E+03  0.67197568283E+03  0.00000000000E+00 0. -1.
         25    2    1    2    0    0  0.65625224282E+02  0.67947228616E+02 -0.18015757338E+03  0.23875713447E+03  0.12499888829E+03 0.  0.
         23    2    1    2    0    0 -0.65625224282E+02 -0.67947228616E+02 -0.45336756529E+03  0.47166909251E+03  0.89476743561E+02 0.  0.
          5    1    3    3  502    0  0.56803597255E+01  0.32610798011E+02 -0.16372522108E+03  0.16710406533E+03  0.47000000000E+01 0. -1.
         -5    1    4    4    0  503 -0.57740131793E+02 -0.28965219068E+02 -0.12419477032E+03  0.14006904622E+03  0.47000000000E+01 0.  1.
          5    1    4    4  503    0 -0.78850924881E+01 -0.38982009547E+02 -0.32917279497E+03  0.33160004629E+03  0.47000000000E+01 0. -1.
         -5    1    3    3    0  502  0.59944864556E+02  0.35336430605E+02 -0.16432352306E+02  0.71653069138E+02  0.47000000000E+01 0. -1.
<mgrwt>
<rscale>  0 0.14956786E+03</rscale>
<asrwt>0</asrwt>
<pdfrwt beam="1">  1        1 0.10338086E+00 0.15667871E+03</pdfrwt>
<pdfrwt beam="2">  1       -1 0.59154690E-02 0.15667871E+03</pdfrwt>
<totfact> 0.39971335E+03</totfact>
</mgrwt>
</event>
<event>
 8    1  0.3551276E-004  0.1657289E+03  0.7546771E-02  0.1189195E+00
          1   -1    0    0  501    0  0.00000000000E+00  0.00000000000E+00  0.20387988753E+03  0.20387988753E+03  0.00000000000E+00 0. -1.
         -1   -1    0    0    0  501 -0.00000000000E+00 -0.00000000000E+00 -0.12225750988E+03  0.12225750988E+03  0.00000000000E+00 0.  1.
         25    2    1    2    0    0 -0.61465964475E+02 -0.89800568488E+02  0.82127888290E+01  0.16593224909E+03  0.12499541790E+03 0.  0.
         23    2    1    2    0    0  0.61465964475E+02  0.89800568488E+02  0.73409588821E+02  0.16020514832E+03  0.91839615234E+02 0.  0.
          5    1    4    4  502    0  0.23321339658E+02 -0.22121656619E+01  0.53398609480E+02  0.58500256878E+02  0.47000000000E+01 0. -1.
         -5    1    3    3    0  503  0.11176895918E+02 -0.79803200106E+02  0.34651446774E+02  0.87842395875E+02  0.47000000000E+01 0. -1.
          5    1    3    3  503    0 -0.72642860392E+02 -0.99973683826E+01 -0.26438657945E+02  0.78089853211E+02  0.47000000000E+01 0. -1.
         -5    1    4    4    0  502  0.38144624816E+02  0.92012734150E+02  0.20010979341E+02  0.10170489144E+03  0.47000000000E+01 0.  1.
<mgrwt>
<rscale>  0 0.15955976E+03</rscale>
<asrwt>0</asrwt>
<pdfrwt beam="1">  1        1 0.31366136E-01 0.16572888E+03</pdfrwt>
<pdfrwt beam="2">  1       -1 0.18808848E-01 0.16572888E+03</pdfrwt>
<totfact> 0.31132021E+03</totfact>
</mgrwt>
</event>
<event>
 8    1  0.3551276E-004  0.1972982E+03  0.7546771E-02  0.1156626E+00
          1   -1    0    0  501    0  0.00000000000E+00  0.00000000000E+00  0.69315283884E+03  0.69315283884E+03  0.00000000000E+00 0. -1.
         -1   -1    0    0    0  501 -0.00000000000E+00 -0.00000000000E+00 -0.54159334630E+02  0.54159334630E+02  0.00000000000E+00 0.  1.
         25    2    1    2    0    0 -0.76929289810E+02 -0.13184036799E+03  0.23941379567E+03  0.31023464160E+03  0.12500627596E+03 0.  0.
         23    2    1    2    0    0  0.76929289810E+02  0.13184036799E+03  0.39957970853E+03  0.43707753186E+03  0.89848912775E+02 0.  0.
          5    1    4    4  502    0 -0.10077094207E+02  0.57034295957E+02  0.92617534552E+02  0.10933689427E+03  0.47000000000E+01 0. -1.
         -5    1    3    3    0  503  0.45719352635E+01 -0.10694443640E+03  0.98794448090E+02  0.14574103075E+03  0.47000000000E+01 0. -1.
          5    1    3    3  503    0 -0.81501225073E+02 -0.24895931584E+02  0.14061934758E+03  0.16449361085E+03  0.47000000000E+01 0. -1.
         -5    1    4    4    0  502  0.87006384017E+02  0.74806072030E+02  0.30696217398E+03  0.32774063759E+03  0.47000000000E+01 0.  1.
<mgrwt>
<rscale>  0 0.19204875E+03</rscale>
<asrwt>0</asrwt>
<pdfrwt beam="1">  1        1 0.10663889E+00 0.19729817E+03</pdfrwt>
<pdfrwt beam="2">  1       -1 0.83322058E-02 0.19729817E+03</pdfrwt>
<totfact> 0.22955060E+03</totfact>
</mgrwt>
</event>
<event>
 8    1  0.3551276E-004  0.3130199E+03  0.7546771E-02  0.1080386E+00
         -4   -1    0    0    0  501 -0.00000000000E+00  0.00000000000E+00  0.14797199352E+04  0.14797199352E+04  0.00000000000E+00 0.  1.
          4   -1    0    0  501    0  0.00000000000E+00 -0.00000000000E+00 -0.70200089254E+02  0.70200089254E+02  0.00000000000E+00 0. -1.
         25    2    1    2    0    0 -0.23856827961E+03 -0.15950890762E+03  0.95409237213E+03  0.10041283348E+04  0.12499416981E+03 0.  0.
         23    2    1    2    0    0  0.23856827961E+03  0.15950890762E+03  0.45542747386E+03  0.54579168973E+03  0.90091447880E+02 0.  0.
          5    1    4    4  502    0  0.10910133887E+03  0.10208075883E+03  0.30176523171E+03  0.33676093677E+03  0.47000000000E+01 0. -1.
         -5    1    3    3    0  503 -0.20091431689E+03 -0.10096958787E+03  0.55252359653E+03  0.59654491459E+03  0.47000000000E+01 0.  1.
          5    1    3    3  503    0 -0.37653962719E+02 -0.58539319753E+02  0.40156877560E+03  0.40758342018E+03  0.47000000000E+01 0.  1.
         -5    1    4    4    0  502  0.12946694074E+03  0.57428148790E+02  0.15366224215E+03  0.20903075296E+03  0.47000000000E+01 0.  1.
<mgrwt>
<rscale>  0 0.30991648E+03</rscale>
<asrwt>0</asrwt>
<pdfrwt beam="1">  1        4 0.10800015E-01 0.31301990E+03</pdfrwt>
<pdfrwt beam="2">  1       -4 0.22764920E+00 0.31301990E+03</pdfrwt>
<totfact> 0.11919164E+01</totfact>
</mgrwt>
</event>
<event>
 8    1  0.3551276E-004  0.1699189E+03  0.7546771E-02  0.1184102E+00
         -4   -1    0    0    0  501 -0.00000000000E+00  0.00000000000E+00  0.17427643071E+03  0.17427643071E+03  0.00000000000E+00 0. -1.
          4   -1    0    0  501    0  0.00000000000E+00 -0.00000000000E+00 -0.15990061379E+03  0.15990061379E+03  0.00000000000E+00 0.  1.
         25    2    1    2    0    0 -0.11180057987E+03  0.27382444620E+02 -0.43353622069E+02  0.17536241531E+03  0.12499308871E+03 0.  0.
         23    2    1    2    0    0  0.11180057987E+03 -0.27382444620E+02  0.57729438989E+02  0.15881462918E+03  0.92952839564E+02 0.  0.
          5    1    4    4  502    0  0.49570046205E+02  0.29553613993E+02  0.45108859658E+02  0.73399623981E+02  0.47000000000E+01 0. -1.
         -5    1    3    3    0  503 -0.72037490807E+02 -0.11601866096E+02  0.33428961847E+02  0.80396448111E+02  0.47000000000E+01 0. -1.
          5    1    3    3  503    0 -0.39763089065E+02  0.38984310716E+02 -0.76782583917E+02  0.94965967204E+02  0.47000000000E+01 0. -1.
         -5    1    4    4    0  502  0.62230533666E+02 -0.56936058613E+02  0.12620579331E+02  0.85415005201E+02  0.47000000000E+01 0.  1.
<mgrwt>
<rscale>  0 0.16413853E+03</rscale>
<asrwt>0</asrwt>
<pdfrwt beam="1">  1        4 0.24600094E-01 0.16991892E+03</pdfrwt>
<pdfrwt beam="2">  1       -4 0.26811759E-01 0.16991892E+03</pdfrwt>
<totfact> 0.35135792E+02</totfact>
</mgrwt>
</event>
<event>
 8    1  0.3551276E-004  0.1462015E+03  0.7546771E-02  0.1214427E+00
         -1   -1    0    0    0  501 -0.00000000000E+00  0.00000000000E+00  0.58216848550E+03  0.58216848550E+03  0.00000000000E+00 0.  1.
          1   -1    0    0  501    0  0.00000000000E+00 -0.00000000000E+00 -0.33885744544E+02  0.33885744544E+02  0.00000000000E+00 0. -1.
         25    2    1    2    0    0 -0.35891486198E+02  0.66794803676E+02  0.20068080118E+03  0.24828949887E+03  0.12500058682E+03 0.  0.
         23    2    1    2    0    0  0.35891486198E+02 -0.66794803676E+02  0.34760193978E+03  0.36776473118E+03  0.93134549887E+02 0.  0.
          5    1    3    3  502    0 -0.27061677883E+02 -0.31182766350E+02  0.95754977158E+02  0.10438297264E+03  0.47000000000E+01 0. -1.
         -5    1    3    3    0  502 -0.88298083156E+01  0.97977570027E+02  0.10492582402E+03  0.14390652622E+03  0.47000000000E+01 0. -1.
          5    1    4    4  503    0  0.24534903172E+02 -0.22196275281E+02  0.24672690783E+02  0.41538750348E+02  0.47000000000E+01 0. -1.
         -5    1    4    4    0  503  0.11356583026E+02 -0.44598528396E+02  0.32292924900E+03  0.32622598083E+03  0.47000000000E+01 0.  1.
<mgrwt>
<rscale>  0 0.13918707E+03</rscale>
<asrwt>0</asrwt>
<pdfrwt beam="1">  1        1 0.52131919E-02 0.14620154E+03</pdfrwt>
<pdfrwt beam="2">  1       -1 0.89564374E-01 0.14620154E+03</pdfrwt>
<totfact> 0.19655920E+03</totfact>
</mgrwt>
</event>
<event>
 8    1  0.3551276E-004  0.1355787E+03  0.7546771E-02  0.1229638E+00
         -2   -1    0    0    0  501 -0.00000000000E+00  0.00000000000E+00  0.26449425931E+02  0.26449425931E+02  0.00000000000E+00 0. -1.
          2   -1    0    0  501    0  0.00000000000E+00 -0.00000000000E+00 -0.98092312689E+03  0.98092312689E+03  0.00000000000E+00 0.  1.
         25    2    1    2    0    0  0.84787897548E+01  0.51833623788E+02 -0.83234578697E+03  0.84331552859E+03  0.12499182877E+03 0.  0.
         23    2    1    2    0    0 -0.84787897548E+01 -0.51833623788E+02 -0.12212791400E+03  0.16405702423E+03  0.96129420008E+02 0.  0.
          5    1    3    3  502    0 -0.55694369740E+01 -0.38722625774E+02 -0.16222763581E+03  0.16694417090E+03  0.47000000000E+01 0.  1.
         -5    1    4    4    0  503  0.17681976290E+02 -0.47303617713E+02 -0.12691359817E+03  0.13667273296E+03  0.47000000000E+01 0.  1.
          5    1    4    4  503    0 -0.26160766045E+02 -0.45300060753E+01  0.47856841771E+01  0.27384291266E+02  0.47000000000E+01 0. -1.
         -5    1    3    3    0  502  0.14048226729E+02  0.90556249562E+02 -0.67011815115E+03  0.67637135770E+03  0.47000000000E+01 0.  1.
<mgrwt>
<rscale>  0 0.12854015E+03</rscale>
<asrwt>0</asrwt>
<pdfrwt beam="1">  1        2 0.15091122E+00 0.13557865E+03</pdfrwt>
<pdfrwt beam="2">  1       -2 0.40691432E-02 0.13557865E+03</pdfrwt>
<totfact> 0.70090875E+03</totfact>
</mgrwt>
</event>
<event>
 8    1  0.3551276E-004  0.2963533E+03  0.7546771E-02  0.1088677E+00
          2   -1    0    0  501    0  0.00000000000E+00  0.00000000000E+00  0.84268209907E+03  0.84268209907E+03  0.00000000000E+00 0.  1.
         -2   -1    0    0    0  501 -0.00000000000E+00 -0.00000000000E+00 -0.10014697225E+03  0.10014697225E+03  0.00000000000E+00 0. -1.
         25    2    1    2    0    0 -0.56811342316E+02 -0.26263156058E+03  0.35749228553E+03  0.46435546380E+03  0.12498958884E+03 0.  0.
         23    2    1    2    0    0  0.56811342316E+02  0.26263156058E+03  0.38504284130E+03  0.47847360752E+03  0.92065944989E+02 0.  0.
          5    1    4    4  502    0 -0.16882448581E+02  0.12889451891E+03  0.15539374369E+03  0.20265270700E+03  0.47000000000E+01 0. -1.
         -5    1    3    3    0  503 -0.11942459640E+02 -0.18866833384E+03  0.15642196362E+03  0.24541451310E+03  0.47000000000E+01 0. -1.
          5    1    3    3  503    0 -0.44868882675E+02 -0.73963226746E+02  0.20107032191E+03  0.21894095070E+03  0.47000000000E+01 0. -1.
         -5    1    4    4    0  502  0.73693790897E+02  0.13373704167E+03  0.22964909760E+03  0.27582090052E+03  0.47000000000E+01 0.  1.
<mgrwt>
<rscale>  0 0.29322592E+03</rscale>
<asrwt>0</asrwt>
<pdfrwt beam="1">  1        2 0.12964340E+00 0.29635327E+03</pdfrwt>
<pdfrwt beam="2">  1       -2 0.15407227E-01 0.29635327E+03</pdfrwt>
<totfact> 0.10867674E+03</totfact>
</mgrwt>
</event>
<event>
 8    1  0.3551276E-004  0.1399573E+03  0.7546771E-02  0.1223775E+00
         -1   -1    0    0    0  501 -0.00000000000E+00  0.00000000000E+00  0.55370700228E+02  0.55370700228E+02  0.00000000000E+00 0.  1.
          1   -1    0    0  501    0  0.00000000000E+00 -0.00000000000E+00 -0.32691237952E+03  0.32691237952E+03  0.00000000000E+00 0. -1.
         25    2    1    2    0    0  0.45663930034E+02 -0.43313982030E+02 -0.21464045648E+03  0.25623930568E+03  0.12500704249E+03 0.  0.
         23    2    1    2    0    0 -0.45663930034E+02  0.43313982030E+02 -0.56901222811E+02  0.12604377407E+03  0.93209378705E+02 0.  0.
          5    1    4    4  502    0 -0.88790093798E+01  0.48978847662E+02 -0.70249531278E+02  0.86225581880E+02  0.47000000000E+01 0. -1.
         -5    1    4    4    0  502 -0.36784920654E+02 -0.56648656328E+01  0.13348308467E+02  0.39818192188E+02  0.47000000000E+01 0.  1.
          5    1    3    3  503    0  0.86693068258E+02 -0.35029775199E+02 -0.11660072291E+03  0.14953458402E+03  0.47000000000E+01 0.  1.
         -5    1    3    3    0  503 -0.41029138224E+02 -0.82842068304E+01 -0.98039733570E+02  0.10670472166E+03  0.47000000000E+01 0.  1.
<mgrwt>
<rscale>  0 0.13251193E+03</rscale>
<asrwt>0</asrwt>
<pdfrwt beam="1">  1        1 0.50294213E-01 0.13995734E+03</pdfrwt>
<pdfrwt beam="2">  1       -1 0.85185691E-02 0.13995734E+03</pdfrwt>
<totfact> 0.58820769E+03</totfact>
</mgrwt>
</event>
<event>
 8    1  0.3551276E-004  0.1269909E+03  0.7546771E-02  0.1244956E+00
         -2   -1    0    0    0  501 -0.00000000000E+00  0.00000000000E+00  0.14521653505E+03  0.14521653505E+03  0.00000000000E+00 0.  1.
          2   -1    0    0  501    0  0.00000000000E+00 -0.00000000000E+00 -0.16494647260E+03  0.16494647260E+03  0.00000000000E+00 0. -1.
         25    2    1    2    0    0 -0.22391128823E+02 -0.15291086879E+00  0.95726422081E+02  0.15902904260E+03  0.12500120989E+03 0.  0.
         23    2    1    2    0    0  0.22391128823E+02  0.15291086879E+00 -0.11545635964E+03  0.15113396505E+03  0.94920589854E+02 0.  0.
          5    1    4    4  502    0  0.38063062312E+02 -0.13868092755E+02 -0.12198301422E+03  0.12861985254E+03  0.47000000000E+01 0. -1.
         -5    1    4    4    0  502 -0.15671933489E+02  0.14021003624E+02  0.65266545831E+01  0.22514112506E+02  0.47000000000E+01 0.  1.
          5    1    3    3  503    0 -0.22628848993E+02 -0.28436876476E+02  0.11746439947E+03  0.12304753510E+03  0.47000000000E+01 0.  1.
         -5    1    3    3    0  503  0.23772017033E+00  0.28283965607E+02 -0.21737977389E+02  0.35981507505E+02  0.47000000000E+01 0.  1.
<mgrwt>
<rscale>  0 0.11888018E+03</rscale>
<asrwt>0</asrwt>
<pdfrwt beam="1">  1        2 0.25376380E-01 0.12699090E+03</pdfrwt>
<pdfrwt beam="2">  1       -2 0.22341006E-01 0.12699090E+03</pdfrwt>
<totfact> 0.35143028E+03</totfact>
</mgrwt>
</event>
<event>
 8    1  0.3551276E-004  0.1266116E+03  0.7546771E-02  0.1247978E+00
         -3   -1    0    0    0  501 -0.00000000000E+00  0.00000000000E+00  0.19307493483E+02  0.19307493483E+02  0.00000000000E+00 0.  1.
          3   -1    0    0  501    0  0.00000000000E+00 -0.00000000000E+00 -0.85794054642E+03  0.85794054642E+03  0.00000000000E+00 0. -1.
         25    2    1    2    0    0  0.55882628913E+01  0.19342843558E+02 -0.69437086609E+03  0.70581966535E+03  0.12500050420E+03 0.  0.
         23    2    1    2    0    0 -0.55882628913E+01 -0.19342843558E+02 -0.14426218685E+03  0.17142837455E+03  0.90392116729E+02 0.  0.
          5    1    3    3  502    0 -0.42832129687E+02  0.51248047413E+02 -0.42463162897E+03  0.42987796410E+03  0.47000000000E+01 0. -1.
         -5    1    4    4    0  503  0.29712170250E+02 -0.30423960390E+02 -0.32855254473E+02  0.53944306217E+02  0.47000000000E+01 0.  1.
          5    1    4    4  503    0 -0.35300433142E+02  0.11081116832E+02 -0.11140693238E+03  0.11748406833E+03  0.47000000000E+01 0. -1.
         -5    1    3    3    0  502  0.48420392578E+02 -0.31905203855E+02 -0.26973923712E+03  0.27594170125E+03  0.47000000000E+01 0. -1.
<mgrwt>
<rscale>  0 0.11708909E+03</rscale>
<asrwt>0</asrwt>
<pdfrwt beam="1">  1        3 0.13199081E+00 0.12661161E+03</pdfrwt>
<pdfrwt beam="2">  1       -3 0.29703845E-02 0.12661161E+03</pdfrwt>
<totfact> 0.56078955E+02</totfact>
</mgrwt>
</event>
<event>
 8    1  0.3551276E-004  0.1413648E+03  0.7546771E-02  0.1221469E+00
          2   -1    0    0  501    0  0.00000000000E+00  0.00000000000E+00  0.10747367674E+03  0.10747367674E+03  0.00000000000E+00 0. -1.
         -2   -1    0    0    0  501 -0.00000000000E+00 -0.00000000000E+00 -0.16925849233E+03  0.16925849233E+03  0.00000000000E+00 0.  1.
         25    2    1    2    0    0  0.51286580171E+02  0.41550997238E+02  0.97385037729E+01  0.14169983209E+03  0.12500882082E+03 0.  0.
         23    2    1    2    0    0 -0.51286580171E+02 -0.41550997238E+02 -0.71523319368E+02  0.13503233698E+03  0.93602073370E+02 0.  0.
          5    1    3    3  502    0  0.61807175552E+02  0.11084548193E+02 -0.45420804548E+02  0.77641056434E+02  0.47000000000E+01 0.  1.
         -5    1    4    4    0  503 -0.15864451758E+02 -0.55043081166E+02 -0.77380248057E+02  0.96390945650E+02  0.47000000000E+01 0.  1.
          5    1    4    4  503    0 -0.35422128414E+02  0.13492083929E+02  0.58569286890E+01  0.38641391328E+02  0.47000000000E+01 0. -1.
         -5    1    3    3    0  502 -0.10520595381E+02  0.30466449045E+02  0.55159308320E+02  0.64058775659E+02  0.47000000000E+01 0.  1.
<mgrwt>
<rscale>  0 0.13411891E+03</rscale>
<asrwt>0</asrwt>
<pdfrwt beam="1">  1        2 0.16534412E-01 0.14136479E+03</pdfrwt>
<pdfrwt beam="2">  1       -2 0.26039768E-01 0.14136479E+03</pdfrwt>
<totfact> 0.43937083E+03</totfact>
</mgrwt>
</event>
<event>
 8    1  0.3551276E-004  0.3814021E+03  0.7546771E-02  0.1051303E+00
         -2   -1    0    0    0  501 -0.00000000000E+00  0.00000000000E+00  0.28351274260E+04  0.28351274260E+04  0.00000000000E+00 0.  1.
          2   -1    0    0  501    0  0.00000000000E+00 -0.00000000000E+00 -0.50767719130E+02  0.50767719130E+02  0.00000000000E+00 0. -1.
         25    2    1    2    0    0  0.18419803563E+03 -0.30970665364E+03  0.12365715545E+04  0.12940543961E+04  0.12498177069E+03 0.  0.
         23    2    1    2    0    0 -0.18419803563E+03  0.30970665364E+03  0.15477881523E+04  0.15918407490E+04  0.91987379737E+02 0.  0.
          5    1    4    4  502    0 -0.12722267101E+03  0.14473266395E+03  0.93510056065E+03  0.95476086041E+03  0.47000000000E+01 0. -1.
         -5    1    4    4    0  502 -0.56975364619E+02  0.16497398970E+03  0.61268759169E+03  0.63707988860E+03  0.47000000000E+01 0.  1.
          5    1    3    3  503    0  0.10212587978E+03 -0.22255084856E+03  0.63340926960E+03  0.67910821547E+03  0.47000000000E+01 0. -1.
         -5    1    3    3    0  503  0.82072155855E+02 -0.87155805088E+02  0.60316228489E+03  0.61494618060E+03  0.47000000000E+01 0. -1.
<mgrwt>
<rscale>  0 0.37900379E+03</rscale>
<asrwt>0</asrwt>
<pdfrwt beam="1">  1        2 0.78104205E-02 0.38140211E+03</pdfrwt>
<pdfrwt beam="2">  1       -2 0.43617333E+00 0.38140211E+03</pdfrwt>
<totfact> 0.44583292E+00</totfact>
</mgrwt>
</event>
<event>
 8    1  0.3551276E-004  0.1256028E+03  0.7546771E-02  0.1250438E+00
          2   -1    0    0  501    0  0.00000000000E+00  0.00000000000E+00  0.82932475840E+02  0.82932475840E+02  0.00000000000E+00 0. -1.
         -2   -1    0    0    0  501 -0.00000000000E+00 -0.00000000000E+00 -0.14646579016E+03  0.14646579016E+03  0.00000000000E+00 0.  1.
         25    2    1    2    0    0  0.67172218733E+01 -0.10421986709E+02 -0.13939328717E+02  0.12637387873E+03  0.12498925339E+03 0.  0.
         23    2    1    2    0    0 -0.67172218733E+01  0.10421986709E+02 -0.49593985600E+02  0.10302438727E+03  0.89446755600E+02 0.  0.
          5    1    4    4  502    0 -0.35722307021E+02 -0.15492723826E+02  0.75609043112E+00  0.39227151097E+02  0.47000000000E+01 0. -1.
         -5    1    3    3    0  503  0.14949192786E+01  0.44424929777E+02 -0.44603317792E+02  0.63145507579E+02  0.47000000000E+01 0.  1.
          5    1    3    3  503    0  0.52223025946E+01 -0.54846916486E+02  0.30663989075E+02  0.63228371151E+02  0.47000000000E+01 0.  1.
         -5    1    4    4    0  502  0.29005085148E+02  0.25914710535E+02 -0.50350076031E+02  0.63797236170E+02  0.47000000000E+01 0.  1.
<mgrwt>
<rscale>  0 0.11565750E+03</rscale>
<asrwt>0</asrwt>
<pdfrwt beam="1">  1        2 0.12758842E-01 0.12560276E+03</pdfrwt>
<pdfrwt beam="2">  1       -2 0.22533198E-01 0.12560276E+03</pdfrwt>
<totfact> 0.75957713E+03</totfact>
</mgrwt>
</event>
<event>
 8    1  0.3551276E-004  0.1252684E+03  0.7546771E-02  0.1251283E+00
          2   -1    0    0  501    0  0.00000000000E+00  0.00000000000E+00  0.56075793494E+03  0.56075793494E+03  0.00000000000E+00 0. -1.
         -2   -1    0    0    0  501 -0.00000000000E+00 -0.00000000000E+00 -0.23324702524E+02  0.23324702524E+02  0.00000000000E+00 0.  1.
         25    2    1    2    0    0  0.77326102901E+01 -0.28164817852E+01  0.40738977481E+03  0.42621425416E+03  0.12499774396E+03 0.  0.
         23    2    1    2    0    0 -0.77326102901E+01  0.28164817852E+01  0.13004345760E+03  0.15786838331E+03  0.89125752454E+02 0.  0.
          5    1    4    4  502    0 -0.10405347744E+02 -0.41807095679E+02  0.76836036827E+02  0.88215480876E+02  0.47000000000E+01 0. -1.
         -5    1    4    4    0  502  0.26727374537E+01  0.44623577464E+02  0.53207420777E+02  0.69652902430E+02  0.47000000000E+01 0.  1.
          5    1    3    3  503    0  0.33495234520E+02 -0.28462275037E+02  0.49152350865E+02  0.66106546056E+02  0.47000000000E+01 0.  1.
         -5    1    3    3    0  503 -0.25762624230E+02  0.25645793252E+02  0.35823742395E+03  0.36010770810E+03  0.47000000000E+01 0.  1.
<mgrwt>
<rscale>  0 0.11517089E+03</rscale>
<asrwt>0</asrwt>
<pdfrwt beam="1">  1        2 0.86270441E-01 0.12526836E+03</pdfrwt>
<pdfrwt beam="2">  1       -2 0.35884162E-02 0.12526836E+03</pdfrwt>
<totfact> 0.16602907E+04</totfact>
</mgrwt>
</event>
<event>
 8    1  0.3551276E-004  0.1313018E+03  0.7546771E-02  0.1234873E+00
         -1   -1    0    0    0  501 -0.00000000000E+00  0.00000000000E+00  0.32989631192E+02  0.32989631192E+02  0.00000000000E+00 0.  1.
          1   -1    0    0  501    0  0.00000000000E+00 -0.00000000000E+00 -0.43573512843E+03  0.43573512843E+03  0.00000000000E+00 0. -1.
         25    2    1    2    0    0  0.13575465718E+01 -0.40155163365E+02 -0.23023767030E+03  0.26504632039E+03  0.12500354814E+03 0.  0.
         23    2    1    2    0    0 -0.13575465718E+01  0.40155163365E+02 -0.17250782694E+03  0.20367843923E+03  0.10055683058E+03 0.  0.
          5    1    3    3  502    0  0.41804436278E+02 -0.25393469931E+02 -0.24703468593E+02  0.54998096041E+02  0.47000000000E+01 0.  1.
         -5    1    3    3    0  502 -0.40446889706E+02 -0.14761693433E+02 -0.20553420171E+03  0.21004822435E+03  0.47000000000E+01 0.  1.
          5    1    4    4  503    0 -0.38233246589E+02 -0.14608852647E+02 -0.53770260055E+02  0.67738693424E+02  0.47000000000E+01 0. -1.
         -5    1    4    4    0  503  0.36875700017E+02  0.54764016012E+02 -0.11873756688E+03  0.13593974581E+03  0.47000000000E+01 0.  1.
<mgrwt>
<rscale>  0 0.12512572E+03</rscale>
<asrwt>0</asrwt>
<pdfrwt beam="1">  1        1 0.67036176E-01 0.13130182E+03</pdfrwt>
<pdfrwt beam="2">  1       -1 0.50753277E-02 0.13130182E+03</pdfrwt>
<totfact> 0.88606100E+03</totfact>
</mgrwt>
</event>
<event>
 8    1  0.3551276E-004  0.1515661E+03  0.7546771E-02  0.1206850E+00
         -2   -1    0    0    0  501 -0.00000000000E+00  0.00000000000E+00  0.17691642034E+02  0.17691642034E+02  0.00000000000E+00 0.  1.
          2   -1    0    0  501    0  0.00000000000E+00 -0.00000000000E+00 -0.13004892549E+04  0.13004892549E+04  0.00000000000E+00 0. -1.
         25    2    1    2    0    0  0.50052668636E+01 -0.85568236563E+02 -0.95124224115E+03  0.96324144624E+03  0.12500122639E+03 0.  0.
         23    2    1    2    0    0 -0.50052668636E+01  0.85568236563E+02 -0.33155537171E+03  0.35493945069E+03  0.93306341378E+02 0.  0.
          5    1    3    3  502    0 -0.58076513701E+02 -0.57074715832E+02 -0.55726768318E+03  0.56320490530E+03  0.47000000000E+01 0. -1.
         -5    1    4    4    0  503  0.15457633809E+02  0.39524416201E+02 -0.38329974355E+02  0.57379393976E+02  0.47000000000E+01 0.  1.
          5    1    4    4  503    0 -0.20462900672E+02  0.46043820362E+02 -0.29322539735E+03  0.29756005671E+03  0.47000000000E+01 0. -1.
         -5    1    3    3    0  502  0.63081780565E+02 -0.28493520731E+02 -0.39397455796E+03  0.40003654094E+03  0.47000000000E+01 0. -1.
<mgrwt>
<rscale>  0 0.14492598E+03</rscale>
<asrwt>0</asrwt>
<pdfrwt beam="1">  1        2 0.20007525E+00 0.15156610E+03</pdfrwt>
<pdfrwt beam="2">  1       -2 0.27217914E-02 0.15156610E+03</pdfrwt>
<totfact> 0.84021587E+03</totfact>
</mgrwt>
</event>
<event>
 8    1  0.3551276E-004  0.1320486E+03  0.7546771E-02  0.1237468E+00
          1   -1    0    0  501    0  0.00000000000E+00  0.00000000000E+00  0.21841540102E+02  0.21841540102E+02  0.00000000000E+00 0. -1.
         -1   -1    0    0    0  501 -0.00000000000E+00 -0.00000000000E+00 -0.64488453785E+03  0.64488453785E+03  0.00000000000E+00 0.  1.
         25    2    1    2    0    0  0.22627833927E+02  0.36042398810E+02 -0.28856104083E+03  0.31733940594E+03  0.12500300355E+03 0.  0.
         23    2    1    2    0    0 -0.22627833927E+02 -0.36042398810E+02 -0.33448195691E+03  0.34938667201E+03  0.91552136500E+02 0.  0.
          5    1    3    3  502    0 -0.36810535976E+02 -0.21895121806E+02 -0.14685982649E+03  0.15305002631E+03  0.47000000000E+01 0. -1.
         -5    1    4    4    0  503  0.19341756293E+02 -0.42668067715E+02 -0.25328685462E+03  0.25762567470E+03  0.47000000000E+01 0.  1.
          5    1    4    4  503    0 -0.41969590221E+02  0.66256689051E+01 -0.81195102290E+02  0.91760997311E+02  0.47000000000E+01 0. -1.
         -5    1    3    3    0  502  0.59438369904E+02  0.57937520616E+02 -0.14170121435E+03  0.16428937963E+03  0.47000000000E+01 0. -1.
<mgrwt>
<rscale>  0 0.12347735E+03</rscale>
<asrwt>0</asrwt>
<pdfrwt beam="1">  1        1 0.33602367E-02 0.13204857E+03</pdfrwt>
<pdfrwt beam="2">  1       -1 0.99213013E-01 0.13204857E+03</pdfrwt>
<totfact> 0.28690520E+03</totfact>
</mgrwt>
</event>
<event>
 8    1  0.3551276E-004  0.1417435E+03  0.7546771E-02  0.1224083E+00
         -2   -1    0    0    0  501 -0.00000000000E+00  0.00000000000E+00  0.44944194238E+03  0.44944194238E+03  0.00000000000E+00 0.  1.
          2   -1    0    0  501    0  0.00000000000E+00 -0.00000000000E+00 -0.35994199140E+02  0.35994199140E+02  0.00000000000E+00 0. -1.
         25    2    1    2    0    0 -0.28824444040E+01  0.66769134306E+02  0.28166316416E+03  0.31531785144E+03  0.12499913444E+03 0.  0.
         23    2    1    2    0    0  0.28824444040E+01 -0.66769134306E+02  0.13178457908E+03  0.17011829008E+03  0.84300839583E+02 0.  0.
          5    1    4    4  502    0  0.46498245805E+00 -0.42843234251E+02  0.78837137987E+01  0.43817825974E+02  0.47000000000E+01 0. -1.
         -5    1    3    3    0  503  0.37914091402E+02  0.79683613333E+02  0.23855060710E+03  0.25439229294E+03  0.47000000000E+01 0.  1.
          5    1    3    3  503    0 -0.40796535806E+02 -0.12914479027E+02  0.43112557065E+02  0.60925558504E+02  0.47000000000E+01 0.  1.
         -5    1    4    4    0  502  0.24174619459E+01 -0.23925900055E+02  0.12390086528E+03  0.12630046411E+03  0.47000000000E+01 0.  1.
<mgrwt>
<rscale>  0 0.13229953E+03</rscale>
<asrwt>0</asrwt>
<pdfrwt beam="1">  1        2 0.55375694E-02 0.14174346E+03</pdfrwt>
<pdfrwt beam="2">  1       -2 0.69144910E-01 0.14174346E+03</pdfrwt>
<totfact> 0.25843240E+03</totfact>
</mgrwt>
</event>
<event>
 8    1  0.3551276E-004  0.1360864E+03  0.7546771E-02  0.1232624E+00
          2   -1    0    0  501    0  0.00000000000E+00  0.00000000000E+00  0.54038430487E+03  0.54038430487E+03  0.00000000000E+00 0. -1.
         -2   -1    0    0    0  501 -0.00000000000E+00 -0.00000000000E+00 -0.26305023024E+02  0.26305023024E+02  0.00000000000E+00 0.  1.
         25    2    1    2    0    0 -0.53474826833E+02 -0.58118703848E+01  0.27551804507E+03  0.30729416975E+03  0.12500471454E+03 0.  0.
         23    2    1    2    0    0  0.53474826833E+02  0.58118703848E+01  0.23856123677E+03  0.25939515814E+03  0.86493060056E+02 0.  0.
          5    1    4    4  502    0  0.25225892797E+02  0.19513957955E+02  0.22055341261E+03  0.22289692245E+03  0.47000000000E+01 0. -1.
         -5    1    4    4    0  502  0.28248934035E+02 -0.13702087570E+02  0.18007824155E+02  0.36498235693E+02  0.47000000000E+01 0.  1.
          5    1    3    3  503    0  0.61602653769E+01 -0.56689060047E+02  0.10550914584E+03  0.12002444857E+03  0.47000000000E+01 0.  1.
         -5    1    3    3    0  503 -0.59635092210E+02  0.50877189663E+02  0.17000889923E+03  0.18726972118E+03  0.47000000000E+01 0.  1.
<mgrwt>
<rscale>  0 0.12657746E+03</rscale>
<asrwt>0</asrwt>
<pdfrwt beam="1">  1        2 0.83136038E-01 0.13608642E+03</pdfrwt>
<pdfrwt beam="2">  1       -2 0.40469270E-02 0.13608642E+03</pdfrwt>
<totfact> 0.14575084E+04</totfact>
</mgrwt>
</event>
<event>
 8    1  0.3551276E-004  0.1884825E+03  0.7546771E-02  0.1165063E+00
          2   -1    0    0  501    0  0.00000000000E+00  0.00000000000E+00  0.60776870172E+03  0.60776870172E+03  0.00000000000E+00 0. -1.
         -2   -1    0    0    0  501 -0.00000000000E+00 -0.00000000000E+00 -0.52171857477E+02  0.52171857477E+02  0.00000000000E+00 0.  1.
         25    2    1    2    0    0 -0.36037944139E+02 -0.13639154958E+03  0.27431265402E+03  0.33282592827E+03  0.12499711260E+03 0.  0.
         23    2    1    2    0    0  0.36037944139E+02  0.13639154958E+03  0.28128419023E+03  0.32711463093E+03  0.89340908211E+02 0.  0.
          5    1    4    4  502    0  0.16433877485E+02  0.11638197804E+03  0.27340792775E+03  0.29763874428E+03  0.47000000000E+01 0. -1.
         -5    1    3    3    0  503  0.12895150690E+01 -0.11610740568E+03  0.99883577645E+02  0.15323645645E+03  0.47000000000E+01 0.  1.
          5    1    3    3  503    0 -0.37327459208E+02 -0.20284143907E+02  0.17442907637E+03  0.17958947182E+03  0.47000000000E+01 0.  1.
         -5    1    4    4    0  502  0.19604066654E+02  0.20009571545E+02  0.78762624730E+01  0.29475886642E+02  0.47000000000E+01 0.  1.
<mgrwt>
<rscale>  0 0.18286102E+03</rscale>
<asrwt>0</asrwt>
<pdfrwt beam="1">  1        2 0.93502872E-01 0.18848254E+03</pdfrwt>
<pdfrwt beam="2">  1       -2 0.80264400E-02 0.18848254E+03</pdfrwt>
<totfact> 0.45934215E+03</totfact>
</mgrwt>
</event>
<event>
 8    1  0.3551276E-004  0.1440087E+03  0.7546771E-02  0.1216940E+00
          4   -1    0    0  501    0  0.00000000000E+00  0.00000000000E+00  0.59833838099E+02  0.59833838099E+02  0.00000000000E+00 0. -1.
         -4   -1    0    0    0  501 -0.00000000000E+00 -0.00000000000E+00 -0.28950300878E+03  0.28950300878E+03  0.00000000000E+00 0.  1.
         25    2    1    2    0    0 -0.65276439032E+02  0.29133982538E+02 -0.12215060659E+03  0.18883662865E+03  0.12501479592E+03 0.  0.
         23    2    1    2    0    0  0.65276439032E+02 -0.29133982538E+02 -0.10751856408E+03  0.16050021822E+03  0.95342938891E+02 0.  0.
          5    1    3    3  502    0 -0.49365490093E+02 -0.44745445302E+02 -0.70881824090E+02  0.97393169544E+02  0.47000000000E+01 0.  1.
         -5    1    4    4    0  503 -0.44237883248E+01 -0.46679475844E+02 -0.41396451089E+02  0.62723994858E+02  0.47000000000E+01 0.  1.
          5    1    4    4  503    0  0.69700227357E+02  0.17545493306E+02 -0.66122112992E+02  0.97776223365E+02  0.47000000000E+01 0. -1.
         -5    1    3    3    0  502 -0.15910948938E+02  0.73879427840E+02 -0.51268782504E+02  0.91443459107E+02  0.47000000000E+01 0.  1.
<mgrwt>
<rscale>  0 0.13734975E+03</rscale>
<asrwt>0</asrwt>
<pdfrwt beam="1">  1        4 0.92052058E-02 0.14400869E+03</pdfrwt>
<pdfrwt beam="2">  1       -4 0.44538925E-01 0.14400869E+03</pdfrwt>
<totfact> 0.71737538E+02</totfact>
</mgrwt>
</event>
<event>
 8    1  0.3551276E-004  0.1316436E+03  0.7546771E-02  0.1238129E+00
          2   -1    0    0  501    0  0.00000000000E+00  0.00000000000E+00  0.41350814945E+03  0.41350814945E+03  0.00000000000E+00 0. -1.
         -2   -1    0    0    0  501 -0.00000000000E+00 -0.00000000000E+00 -0.33306368931E+02  0.33306368931E+02  0.00000000000E+00 0.  1.
         25    2    1    2    0    0 -0.34308826886E+02 -0.22989148978E+02  0.18255092150E+03  0.22506640567E+03  0.12499780577E+03 0.  0.
         23    2    1    2    0    0  0.34308826886E+02  0.22989148978E+02  0.19765085901E+03  0.22174811270E+03  0.91655697290E+02 0.  0.
          5    1    3    3  502    0  0.33298050080E+02  0.44533974529E+01  0.13171998356E+03  0.13601778176E+03  0.47000000000E+01 0.  1.
         -5    1    3    3    0  502 -0.67606876966E+02 -0.27442546431E+02  0.50830937947E+02  0.89048623910E+02  0.47000000000E+01 0.  1.
          5    1    4    4  503    0  0.21957203331E+02  0.54310762729E+02  0.16270929013E+03  0.17299763241E+03  0.47000000000E+01 0. -1.
         -5    1    4    4    0  503  0.12351623555E+02 -0.31321613751E+02  0.34941568884E+02  0.48750480290E+02  0.47000000000E+01 0.  1.
<mgrwt>
<rscale>  0 0.12306209E+03</rscale>
<asrwt>0</asrwt>
<pdfrwt beam="1">  1        2 0.63616634E-01 0.13164364E+03</pdfrwt>
<pdfrwt beam="2">  1       -2 0.51240571E-02 0.13164364E+03</pdfrwt>
<totfact> 0.13675921E+04</totfact>
</mgrwt>
</event>
<event>
 8    1  0.3551276E-004  0.2471467E+03  0.7546771E-02  0.1117666E+00
          2   -1    0    0  501    0  0.00000000000E+00  0.00000000000E+00  0.29503160195E+03  0.29503160195E+03  0.00000000000E+00 0. -1.
         -2   -1    0    0    0  501 -0.00000000000E+00 -0.00000000000E+00 -0.22339754528E+03  0.22339754528E+03  0.00000000000E+00 0.  1.
         25    2    1    2    0    0  0.19558815138E+03  0.84854214876E+02 -0.56558376235E+02  0.25353569239E+03  0.12500613845E+03 0.  0.
         23    2    1    2    0    0 -0.19558815138E+03 -0.84854214876E+02  0.12819243291E+03  0.26489345484E+03  0.90996042860E+02 0.  0.
          5    1    3    3  502    0  0.18420261510E+03  0.25392229498E+02 -0.48945718345E+02  0.19233601346E+03  0.47000000000E+01 0. -1.
         -5    1    4    4    0  503 -0.94745055485E+02 -0.58489304157E+02  0.17556231212E+02  0.11281815232E+03  0.47000000000E+01 0.  1.
          5    1    4    4  503    0 -0.10084309590E+03 -0.26364910719E+02  0.11063620170E+03  0.15207530251E+03  0.47000000000E+01 0. -1.
         -5    1    3    3    0  502  0.11385536286E+02  0.59461985378E+02 -0.76126578897E+01  0.61199678935E+02  0.47000000000E+01 0. -1.
<mgrwt>
<rscale>  0 0.24321958E+03</rscale>
<asrwt>0</asrwt>
<pdfrwt beam="1">  1        2 0.45389477E-01 0.24714671E+03</pdfrwt>
<pdfrwt beam="2">  1       -2 0.34368853E-01 0.24714671E+03</pdfrwt>
<totfact> 0.88575263E+02</totfact>
</mgrwt>
</event>
<event>
 8    1  0.3551276E-004  0.1619391E+03  0.7546771E-02  0.1193954E+00
          3   -1    0    0  501    0  0.00000000000E+00  0.00000000000E+00  0.17264740110E+03  0.17264740110E+03  0.00000000000E+00 0. -1.
         -3   -1    0    0    0  501 -0.00000000000E+00 -0.00000000000E+00 -0.13302561870E+03  0.13302561870E+03  0.00000000000E+00 0.  1.
         25    2    1    2    0    0  0.86737560588E+01  0.10258615643E+03  0.45186102459E+02  0.16812514038E+03  0.12500050175E+03 0.  0.
         23    2    1    2    0    0 -0.86737560588E+01 -0.10258615643E+03 -0.55643200560E+01  0.13754787943E+03  0.91045614624E+02 0.  0.
          5    1    3    3  502    0  0.27293565692E+02  0.62637590237E+02 -0.34692417186E+02  0.76772783257E+02  0.47000000000E+01 0. -1.
         -5    1    3    3    0  502 -0.18619809633E+02  0.39948566189E+02  0.79878519645E+02  0.91352357123E+02  0.47000000000E+01 0. -1.
          5    1    4    4  503    0 -0.27985106574E+02 -0.85463092785E+02  0.28590583564E+02  0.94480780516E+02  0.47000000000E+01 0. -1.
         -5    1    4    4    0  503  0.19311350516E+02 -0.17123063641E+02 -0.34154903620E+02  0.43067098909E+02  0.47000000000E+01 0.  1.
<mgrwt>
<rscale>  0 0.15543127E+03</rscale>
<asrwt>0</asrwt>
<pdfrwt beam="1">  1        3 0.26561139E-01 0.16193912E+03</pdfrwt>
<pdfrwt beam="2">  1       -3 0.20465480E-01 0.16193912E+03</pdfrwt>
<totfact> 0.68762809E+02</totfact>
</mgrwt>
</event>
<event>
 8    1  0.3551276E-004  0.2457497E+03  0.7546771E-02  0.1118485E+00
          2   -1    0    0  501    0  0.00000000000E+00  0.00000000000E+00  0.11092959029E+04  0.11092959029E+04  0.00000000000E+00 0.  1.
         -2   -1    0    0    0  501 -0.00000000000E+00 -0.00000000000E+00 -0.99817243026E+02  0.99817243026E+02  0.00000000000E+00 0. -1.
         25    2    1    2    0    0 -0.41860637744E+01  0.21154226193E+03  0.93448071302E+03  0.96625415598E+03  0.12500095693E+03 0.  0.
         23    2    1    2    0    0  0.41860637744E+01 -0.21154226193E+03  0.74997946888E+02  0.24285898998E+03  0.92672246466E+02 0.  0.
          5    1    4    4  502    0  0.17422457845E+02 -0.13209458449E+03  0.91312934593E+00  0.13332458548E+03  0.47000000000E+01 0. -1.
         -5    1    4    4    0  502 -0.13236394070E+02 -0.79447677437E+02  0.74084817542E+02  0.10953440450E+03  0.47000000000E+01 0.  1.
          5    1    3    3  503    0  0.56342096616E+02  0.14477360322E+03  0.57887795509E+03  0.59937934977E+03  0.47000000000E+01 0. -1.
         -5    1    3    3    0  503 -0.60528160390E+02  0.66768658703E+02  0.35560275794E+03  0.36687480622E+03  0.47000000000E+01 0. -1.
<mgrwt>
<rscale>  0 0.24197326E+03</rscale>
<asrwt>0</asrwt>
<pdfrwt beam="1">  1        2 0.17066090E+00 0.24574965E+03</pdfrwt>
<pdfrwt beam="2">  1       -2 0.15356500E-01 0.24574965E+03</pdfrwt>
<totfact> 0.74620983E+02</totfact>
</mgrwt>
</event>
<event>
 8    1  0.3551276E-004  0.1309951E+03  0.7546771E-02  0.1239928E+00
          1   -1    0    0  501    0  0.00000000000E+00  0.00000000000E+00  0.32665100096E+02  0.32665100096E+02  0.00000000000E+00 0. -1.
         -1   -1    0    0    0  501 -0.00000000000E+00 -0.00000000000E+00 -0.40398158431E+03  0.40398158431E+03  0.00000000000E+00 0.  1.
         25    2    1    2    0    0  0.39232475499E+02 -0.14561107370E+01 -0.19942723561E+03  0.23860204096E+03  0.12497361424E+03 0.  0.
         23    2    1    2    0    0 -0.39232475499E+02  0.14561107370E+01 -0.17188924860E+03  0.19804464344E+03  0.90191239146E+02 0.  0.
          5    1    4    4  502    0 -0.36668423969E+02 -0.31330595066E+02 -0.42489924296E+02  0.64448919078E+02  0.47000000000E+01 0. -1.
         -5    1    3    3    0  503 -0.23565873381E+02  0.17007107669E+01 -0.16502579714E+03  0.16677483781E+03  0.47000000000E+01 0.  1.
          5    1    3    3  503    0  0.62798348879E+02 -0.31568215039E+01 -0.34401438474E+02  0.71827203155E+02  0.47000000000E+01 0.  1.
         -5    1    4    4    0  502 -0.25640515291E+01  0.32786705803E+02 -0.12939932430E+03  0.13359572436E+03  0.47000000000E+01 0.  1.
<mgrwt>
<rscale>  0 0.12194161E+03</rscale>
<asrwt>0</asrwt>
<pdfrwt beam="1">  1        1 0.50254002E-02 0.13099508E+03</pdfrwt>
<pdfrwt beam="2">  1       -1 0.62151011E-01 0.13099508E+03</pdfrwt>
<totfact> 0.42834202E+03</totfact>
</mgrwt>
</event>
<event>
 8    1  0.3551276E-004  0.4790704E+03  0.7546771E-02  0.1019903E+00
          2   -1    0    0  501    0  0.00000000000E+00  0.00000000000E+00  0.92259918982E+03  0.92259918982E+03  0.00000000000E+00 0. -1.
         -2   -1    0    0    0  501 -0.00000000000E+00 -0.00000000000E+00 -0.29118843690E+03  0.29118843690E+03  0.00000000000E+00 0.  1.
         25    2    1    2    0    0 -0.41622852297E+03 -0.20158541220E+03  0.55959546434E+03  0.73665156291E+03  0.12500231872E+03 0.  0.
         23    2    1    2    0    0  0.41622852297E+03  0.20158541220E+03  0.71815288589E+02  0.47713606381E+03  0.92836016574E+02 0.  0.
          5    1    3    3  502    0 -0.24255088584E+03 -0.16077027753E+03  0.41541540399E+03  0.50721796324E+03  0.47000000000E+01 0. -1.
         -5    1    4    4    0  503  0.17011970606E+03  0.92455563339E+02 -0.14919993104E+02  0.19425097626E+03  0.47000000000E+01 0.  1.
          5    1    4    4  503    0  0.24610881691E+03  0.10912984886E+03  0.86735281694E+02  0.28288508756E+03  0.47000000000E+01 0. -1.
         -5    1    3    3    0  502 -0.17367763712E+03 -0.40815134667E+02  0.14418006034E+03  0.22943359966E+03  0.47000000000E+01 0. -1.
<mgrwt>
<rscale>  0 0.47721720E+03</rscale>
<asrwt>0</asrwt>
<pdfrwt beam="1">  1        2 0.14193834E+00 0.47907039E+03</pdfrwt>
<pdfrwt beam="2">  1       -2 0.44798221E-01 0.47907039E+03</pdfrwt>
<totfact> 0.13829907E+02</totfact>
</mgrwt>
</event>
<event>
 8    1  0.3551276E-004  0.1455161E+03  0.7546771E-02  0.1217205E+00
         -2   -1    0    0    0  501 -0.00000000000E+00  0.00000000000E+00  0.49139231271E+03  0.49139231271E+03  0.00000000000E+00 0.  1.
          2   -1    0    0  501    0  0.00000000000E+00 -0.00000000000E+00 -0.34919624668E+02  0.34919624668E+02  0.00000000000E+00 0. -1.
         25    2    1    2    0    0 -0.73669453006E+02  0.11082581458E+02  0.28374770341E+03  0.31888506157E+03  0.12499964553E+03 0.  0.
         23    2    1    2    0    0  0.73669453006E+02 -0.11082581458E+02  0.17272498463E+03  0.20742687581E+03  0.87418399517E+02 0.  0.
          5    1    3    3  502    0  0.19910576327E+02  0.24453370898E+02  0.17618815186E+02  0.36426790231E+02  0.47000000000E+01 0. -1.
         -5    1    3    3    0  502 -0.93580029333E+02 -0.13370789440E+02  0.26612888822E+03  0.28245827134E+03  0.47000000000E+01 0. -1.
          5    1    4    4  503    0  0.25362157860E+02 -0.35915813521E+02  0.26934560563E+02  0.51775913946E+02  0.47000000000E+01 0. -1.
         -5    1    4    4    0  503  0.48307295145E+02  0.24833232063E+02  0.14579042407E+03  0.15565096187E+03  0.47000000000E+01 0.  1.
<mgrwt>
<rscale>  0 0.13715826E+03</rscale>
<asrwt>0</asrwt>
<pdfrwt beam="1">  1        2 0.53722503E-02 0.14551606E+03</pdfrwt>
<pdfrwt beam="2">  1       -2 0.75598812E-01 0.14551606E+03</pdfrwt>
<totfact> 0.22241476E+03</totfact>
</mgrwt>
</event>
<event>
 8    1  0.3551276E-004  0.2066040E+03  0.7546771E-02  0.1148188E+00
          1   -1    0    0  501    0  0.00000000000E+00  0.00000000000E+00  0.55238395933E+02  0.55238395933E+02  0.00000000000E+00 0. -1.
         -1   -1    0    0    0  501 -0.00000000000E+00 -0.00000000000E+00 -0.91559208915E+03  0.91559208915E+03  0.00000000000E+00 0.  1.
         25    2    1    2    0    0  0.16446729728E+03  0.18076596878E+01 -0.21330616954E+03  0.29695914307E+03  0.12502980117E+03 0.  0.
         23    2    1    2    0    0 -0.16446729728E+03 -0.18076596878E+01 -0.64704752367E+03  0.67387134201E+03  0.91538670423E+02 0.  0.
          5    1    4    4  502    0 -0.14969363645E+03 -0.32853378207E+02 -0.53937418751E+03  0.56074426739E+03  0.47000000000E+01 0. -1.
         -5    1    4    4    0  502 -0.14773660830E+02  0.31045718519E+02 -0.10767333616E+03  0.11312707462E+03  0.47000000000E+01 0.  1.
          5    1    3    3  503    0  0.88659587664E+02  0.27627125208E+02 -0.31387735648E+02  0.98137966563E+02  0.47000000000E+01 0. -1.
         -5    1    3    3    0  503  0.75807709618E+02 -0.25819465520E+02 -0.18191843390E+03  0.19882117651E+03  0.47000000000E+01 0. -1.
<mgrwt>
<rscale>  0 0.20184994E+03</rscale>
<asrwt>0</asrwt>
<pdfrwt beam="1">  1        1 0.84982145E-02 0.20660399E+03</pdfrwt>
<pdfrwt beam="2">  1       -1 0.14086033E+00 0.20660399E+03</pdfrwt>
<totfact> 0.35704890E+02</totfact>
</mgrwt>
</event>
<event>
 8    1  0.3551276E-004  0.1455686E+03  0.7546771E-02  0.1216075E+00
          1   -1    0    0  501    0  0.00000000000E+00  0.00000000000E+00  0.27239967730E+02  0.27239967730E+02  0.00000000000E+00 0. -1.
         -1   -1    0    0    0  501 -0.00000000000E+00 -0.00000000000E+00 -0.63523244942E+03  0.63523244942E+03  0.00000000000E+00 0.  1.
         25    2    1    2    0    0 -0.73969916021E+02  0.96896469545E+01 -0.34004181570E+03  0.36989007274E+03  0.12499916700E+03 0.  0.
         23    2    1    2    0    0  0.73969916021E+02 -0.96896469545E+01 -0.26795066598E+03  0.29258234441E+03  0.90782328254E+02 0.  0.
          5    1    3    3  502    0 -0.59726669839E+02 -0.53288512578E+02 -0.17064519214E+03  0.18854392661E+03  0.47000000000E+01 0.  1.
         -5    1    3    3    0  502 -0.14243246181E+02  0.62978159533E+02 -0.16939662356E+03  0.18134614613E+03  0.47000000000E+01 0.  1.
          5    1    4    4  503    0  0.59187326296E+01 -0.20479503673E+02 -0.74238966079E+01  0.23057443646E+02  0.47000000000E+01 0. -1.
         -5    1    4    4    0  503  0.68051183391E+02  0.10789856718E+02 -0.26052676938E+03  0.26952490076E+03  0.47000000000E+01 0.  1.
<mgrwt>
<rscale>  0 0.13797893E+03</rscale>
<asrwt>0</asrwt>
<pdfrwt beam="1">  1        1 0.41907648E-02 0.14556864E+03</pdfrwt>
<pdfrwt beam="2">  1       -1 0.97728057E-01 0.14556864E+03</pdfrwt>
<totfact> 0.21978835E+03</totfact>
</mgrwt>
</event>
<event>
 8    1  0.3551276E-004  0.1352412E+03  0.7546771E-02  0.1232425E+00
          1   -1    0    0  501    0  0.00000000000E+00  0.00000000000E+00  0.79544825250E+03  0.79544825250E+03  0.00000000000E+00 0. -1.
         -1   -1    0    0    0  501 -0.00000000000E+00 -0.00000000000E+00 -0.31395765214E+02  0.31395765214E+02  0.00000000000E+00 0.  1.
         25    2    1    2    0    0 -0.51572543536E+02 -0.24837403007E+01  0.67899682477E+03  0.69233436415E+03  0.12499715006E+03 0.  0.
         23    2    1    2    0    0  0.51572543536E+02  0.24837403007E+01  0.85055662517E+02  0.13450965356E+03  0.90512347021E+02 0.  0.
          5    1    4    4  502    0  0.19942742977E+02  0.30097456736E+02  0.84770454242E+02  0.92258819697E+02  0.47000000000E+01 0. -1.
         -5    1    4    4    0  502  0.31629800559E+02 -0.27613716435E+02  0.28520827415E+00  0.42250833868E+02  0.47000000000E+01 0.  1.
          5    1    3    3  503    0  0.37404264220E+01  0.47488648502E+02  0.13502341731E+03  0.14325702688E+03  0.47000000000E+01 0. -1.
         -5    1    3    3    0  503 -0.55312969958E+02 -0.49972388803E+02  0.54397340746E+03  0.54907733727E+03  0.47000000000E+01 0. -1.
<mgrwt>
<rscale>  0 0.12670753E+03</rscale>
<asrwt>0</asrwt>
<pdfrwt beam="1">  1        1 0.12237664E+00 0.13524121E+03</pdfrwt>
<pdfrwt beam="2">  1       -1 0.48301183E-02 0.13524121E+03</pdfrwt>
<totfact> 0.42000113E+03</totfact>
</mgrwt>
</event>
<event>
 8    1  0.3551276E-004  0.1393973E+03  0.7546771E-02  0.1225506E+00
          2   -1    0    0  501    0  0.00000000000E+00  0.00000000000E+00  0.93248977257E+02  0.93248977257E+02  0.00000000000E+00 0.  1.
         -2   -1    0    0    0  501 -0.00000000000E+00 -0.00000000000E+00 -0.18147235866E+03  0.18147235866E+03  0.00000000000E+00 0. -1.
         25    2    1    2    0    0  0.41091051710E+02  0.46019086717E+02 -0.88135501480E+02  0.16492266552E+03  0.12500155242E+03 0.  0.
         23    2    1    2    0    0 -0.41091051710E+02 -0.46019086717E+02 -0.87879922299E-01  0.10979867040E+03  0.90826810060E+02 0.  0.
          5    1    4    4  502    0 -0.31485992841E+02 -0.70390248349E+02 -0.15855311248E+02  0.78864667009E+02  0.47000000000E+01 0. -1.
         -5    1    3    3    0  503 -0.42414288770E+02  0.68391885519E+01 -0.11018608514E+02  0.44600965523E+02  0.47000000000E+01 0.  1.
          5    1    3    3  503    0  0.83505340480E+02  0.39179898165E+02 -0.77116892966E+02  0.12032169999E+03  0.47000000000E+01 0.  1.
         -5    1    4    4    0  502 -0.96050588685E+01  0.24371161631E+02  0.15767431325E+02  0.30934003390E+02  0.47000000000E+01 0.  1.
<mgrwt>
<rscale>  0 0.13132279E+03</rscale>
<asrwt>0</asrwt>
<pdfrwt beam="1">  1        2 0.14345996E-01 0.13939734E+03</pdfrwt>
<pdfrwt beam="2">  1       -2 0.27918825E-01 0.13939734E+03</pdfrwt>
<totfact> 0.45810746E+03</totfact>
</mgrwt>
</event>
<event>
 8    1  0.3551276E-004  0.1517926E+03  0.7546771E-02  0.1207145E+00
          1   -1    0    0  501    0  0.00000000000E+00  0.00000000000E+00  0.14835085110E+03  0.14835085110E+03  0.00000000000E+00 0. -1.
         -1   -1    0    0    0  501 -0.00000000000E+00 -0.00000000000E+00 -0.14111165253E+03  0.14111165253E+03  0.00000000000E+00 0.  1.
         25    2    1    2    0    0  0.76467900069E+02 -0.39615589376E+02  0.45410665409E+02  0.15843960957E+03  0.12499698670E+03 0.  0.
         23    2    1    2    0    0 -0.76467900069E+02  0.39615589376E+02 -0.38171466838E+02  0.13102289407E+03  0.91067026010E+02 0.  0.
          5    1    3    3  502    0  0.47716330701E+02 -0.70893929162E+02  0.68713230122E+02  0.10975607228E+03  0.47000000000E+01 0.  1.
         -5    1    4    4    0  503 -0.58933979000E+02  0.18350779152E+02 -0.66754062309E+02  0.91039331121E+02  0.47000000000E+01 0.  1.
          5    1    4    4  503    0 -0.17533921069E+02  0.21264810224E+02  0.28582595471E+02  0.39983562945E+02  0.47000000000E+01 0. -1.
         -5    1    3    3    0  502  0.28751569368E+02  0.31278339786E+02 -0.23302564713E+02  0.48683537290E+02  0.47000000000E+01 0.  1.
<mgrwt>
<rscale>  0 0.14469705E+03</rscale>
<asrwt>0</asrwt>
<pdfrwt beam="1">  1        1 0.22823208E-01 0.15179256E+03</pdfrwt>
<pdfrwt beam="2">  1       -1 0.21709485E-01 0.15179256E+03</pdfrwt>
<totfact> 0.36676775E+03</totfact>
</mgrwt>
</event>
<event>
 8    1  0.3551276E-004  0.1424374E+03  0.7546771E-02  0.1220464E+00
         -1   -1    0    0    0  501 -0.00000000000E+00  0.00000000000E+00  0.70570944769E+02  0.70570944769E+02  0.00000000000E+00 0.  1.
          1   -1    0    0  501    0  0.00000000000E+00 -0.00000000000E+00 -0.23607783818E+03  0.23607783818E+03  0.00000000000E+00 0. -1.
         25    2    1    2    0    0  0.14162802393E+01 -0.68273038753E+02 -0.76069671737E+02  0.16147760194E+03  0.12500082920E+03 0.  0.
         23    2    1    2    0    0 -0.14162802393E+01  0.68273038753E+02 -0.89437221671E+02  0.14517118101E+03  0.91719362757E+02 0.  0.
          5    1    4    4  502    0 -0.23703620842E+02  0.23732233392E+01 -0.68030516800E+02  0.72233891257E+02  0.47000000000E+01 0. -1.
         -5    1    3    3    0  503  0.36909129281E+00 -0.20300490246E+02  0.34808498507E+02  0.40570527491E+02  0.47000000000E+01 0. -1.
          5    1    3    3  503    0  0.10471889465E+01 -0.47972548507E+02 -0.11087817024E+03  0.12090707445E+03  0.47000000000E+01 0. -1.
         -5    1    4    4    0  502  0.22287340603E+02  0.65899815414E+02 -0.21406704872E+02  0.72937289750E+02  0.47000000000E+01 0.  1.
<mgrwt>
<rscale>  0 0.13482674E+03</rscale>
<asrwt>0</asrwt>
<pdfrwt beam="1">  1        1 0.36319668E-01 0.14243743E+03</pdfrwt>
<pdfrwt beam="2">  1       -1 0.10857068E-01 0.14243743E+03</pdfrwt>
<totfact> 0.60887014E+03</totfact>
</mgrwt>
</event>
<event>
 8    1  0.3551276E-004  0.1319704E+03  0.7546771E-02  0.1238162E+00
          1   -1    0    0  501    0  0.00000000000E+00  0.00000000000E+00  0.31021464682E+03  0.31021464682E+03  0.00000000000E+00 0. -1.
         -1   -1    0    0    0  501 -0.00000000000E+00 -0.00000000000E+00 -0.71101145219E+02  0.71101145219E+02  0.00000000000E+00 0.  1.
         25    2    1    2    0    0 -0.42118964625E+02 -0.30469219012E+01  0.11083635471E+02  0.13243504601E+03  0.12503161009E+03 0.  0.
         23    2    1    2    0    0  0.42118964625E+02  0.30469219012E+01  0.22802986613E+03  0.24888074603E+03  0.90336675730E+02 0.  0.
          5    1    4    4  502    0 -0.18017470336E+02 -0.23177835701E+02  0.10792227233E+03  0.11194261106E+03  0.47000000000E+01 0. -1.
         -5    1    3    3    0  503 -0.57338279924E+02  0.41332213036E+02  0.35611088076E+02  0.79285999855E+02  0.47000000000E+01 0. -1.
          5    1    3    3  503    0  0.15219315299E+02 -0.44379134938E+02 -0.24527452605E+02  0.53149046156E+02  0.47000000000E+01 0. -1.
         -5    1    4    4    0  502  0.60136434961E+02  0.26224757602E+02  0.12010759380E+03  0.13693813497E+03  0.47000000000E+01 0.  1.
<mgrwt>
<rscale>  0 0.12304179E+03</rscale>
<asrwt>0</asrwt>
<pdfrwt beam="1">  1        1 0.47725330E-01 0.13197043E+03</pdfrwt>
<pdfrwt beam="2">  1       -1 0.10938638E-01 0.13197043E+03</pdfrwt>
<totfact> 0.42747981E+03</totfact>
</mgrwt>
</event>
<event>
 8    1  0.3551276E-004  0.1530127E+03  0.7546771E-02  0.1203706E+00
         -2   -1    0    0    0  501 -0.00000000000E+00  0.00000000000E+00  0.71161837936E+02  0.71161837936E+02  0.00000000000E+00 0.  1.
          2   -1    0    0  501    0  0.00000000000E+00 -0.00000000000E+00 -0.31013869836E+03  0.31013869836E+03  0.00000000000E+00 0. -1.
         25    2    1    2    0    0  0.87296227907E+02  0.12937142659E+02 -0.73436090382E+02  0.16972254098E+03  0.12499952191E+03 0.  0.
         23    2    1    2    0    0 -0.87296227907E+02 -0.12937142659E+02 -0.16554077004E+03  0.21157799531E+03  0.97844266511E+02 0.  0.
          5    1    3    3  502    0  0.76001972399E+02 -0.42432984451E+02 -0.15287849655E+02  0.88502352088E+02  0.47000000000E+01 0. -1.
         -5    1    4    4    0  503 -0.69186587811E+02 -0.34514360848E+02 -0.49157494463E+02  0.91741889557E+02  0.47000000000E+01 0.  1.
          5    1    4    4  503    0 -0.18109640096E+02  0.21577218189E+02 -0.11638327557E+03  0.11983610576E+03  0.47000000000E+01 0. -1.
         -5    1    3    3    0  502  0.11294255507E+02  0.55370127110E+02 -0.58148240728E+02  0.81220188890E+02  0.47000000000E+01 0. -1.
<mgrwt>
<rscale>  0 0.14739881E+03</rscale>
<asrwt>0</asrwt>
<pdfrwt beam="1">  1        2 0.47713646E-01 0.15301268E+03</pdfrwt>
<pdfrwt beam="2">  1       -2 0.10947975E-01 0.15301268E+03</pdfrwt>
<totfact> 0.58268035E+03</totfact>
</mgrwt>
</event>
<event>
 8    1  0.3551276E-004  0.1585051E+03  0.7546771E-02  0.1199082E+00
          2   -1    0    0  501    0  0.00000000000E+00  0.00000000000E+00  0.20151895020E+04  0.20151895020E+04  0.00000000000E+00 0. -1.
         -2   -1    0    0    0  501 -0.00000000000E+00 -0.00000000000E+00 -0.10896027759E+02  0.10896027759E+02  0.00000000000E+00 0.  1.
         25    2    1    2    0    0  0.93720378741E+02 -0.26742191349E+02  0.13082332687E+04  0.13178004965E+04  0.12500083651E+03 0.  0.
         23    2    1    2    0    0 -0.93720378741E+02  0.26742191349E+02  0.69606020555E+03  0.70828503324E+03  0.87574107887E+02 0.  0.
          5    1    4    4  502    0 -0.60403659730E+02  0.44485887170E+02  0.60424594846E+03  0.60890299104E+03  0.47000000000E+01 0. -1.
         -5    1    4    4    0  502 -0.33316719011E+02 -0.17743695821E+02  0.91814257090E+02  0.99382042201E+02  0.47000000000E+01 0.  1.
          5    1    3    3  503    0  0.10944954619E+03 -0.56901134059E+02  0.10721000166E+04  0.10791837090E+04  0.47000000000E+01 0.  1.
         -5    1    3    3    0  503 -0.15729167450E+02  0.30158942710E+02  0.23613325211E+03  0.23861678751E+03  0.47000000000E+01 0.  1.
<mgrwt>
<rscale>  0 0.15113741E+03</rscale>
<asrwt>0</asrwt>
<pdfrwt beam="1">  1        2 0.31002886E+00 0.15850509E+03</pdfrwt>
<pdfrwt beam="2">  1       -2 0.16763136E-02 0.15850509E+03</pdfrwt>
<totfact> 0.72481088E+03</totfact>
</mgrwt>
</event>
<event>
 8    1  0.3551276E-004  0.1279569E+03  0.7546771E-02  0.1244604E+00
         -2   -1    0    0    0  501 -0.00000000000E+00  0.00000000000E+00  0.96469762914E+02  0.96469762914E+02  0.00000000000E+00 0.  1.
          2   -1    0    0  501    0  0.00000000000E+00 -0.00000000000E+00 -0.13211277450E+03  0.13211277450E+03  0.00000000000E+00 0. -1.
         25    2    1    2    0    0  0.10345778482E+02  0.25298169402E+02 -0.34647647996E+02  0.13256475814E+03  0.12500369227E+03 0.  0.
         23    2    1    2    0    0 -0.10345778482E+02 -0.25298169402E+02 -0.99536359458E+00  0.96017779280E+02  0.92040157983E+02 0.  0.
          5    1    4    4  502    0  0.18991761214E+02 -0.37561582950E+02 -0.30654783583E+02  0.52281595846E+02  0.47000000000E+01 0. -1.
         -5    1    4    4    0  502 -0.29337539696E+02  0.12263413548E+02  0.29659419989E+02  0.43736183433E+02  0.47000000000E+01 0.  1.
          5    1    3    3  503    0  0.13766919404E+02 -0.49977127461E+02 -0.89715607034E+01  0.52818748950E+02  0.47000000000E+01 0. -1.
         -5    1    3    3    0  503 -0.34211409223E+01  0.75275296863E+02 -0.25676087293E+02  0.79746009190E+02  0.47000000000E+01 0. -1.
<mgrwt>
<rscale>  0 0.11909122E+03</rscale>
<asrwt>0</asrwt>
<pdfrwt beam="1">  1        2 0.20325042E-01 0.12795685E+03</pdfrwt>
<pdfrwt beam="2">  1       -2 0.14841502E-01 0.12795685E+03</pdfrwt>
<totfact> 0.89122146E+03</totfact>
</mgrwt>
</event>
<event>
 8    1  0.3551276E-004  0.1525155E+03  0.7546771E-02  0.1206934E+00
         -2   -1    0    0    0  501 -0.00000000000E+00  0.00000000000E+00  0.50898258747E+02  0.50898258747E+02  0.00000000000E+00 0. -1.
          2   -1    0    0  501    0  0.00000000000E+00 -0.00000000000E+00 -0.41689025637E+03  0.41689025637E+03  0.00000000000E+00 0.  1.
         25    2    1    2    0    0  0.86706773399E+02 -0.10851529453E+02 -0.27292500617E+03  0.31264841486E+03  0.12500060830E+03 0.  0.
         23    2    1    2    0    0 -0.86706773399E+02  0.10851529453E+02 -0.93066991448E+02  0.15514010025E+03  0.88154214675E+02 0.  0.
          5    1    3    3  502    0  0.18324297112E+02 -0.44061063565E+02 -0.26637336206E+02  0.54852482782E+02  0.47000000000E+01 0.  1.
         -5    1    4    4    0  503 -0.90150416700E+02 -0.15384067645E+02 -0.89468814828E+02  0.12802548963E+03  0.47000000000E+01 0.  1.
          5    1    4    4  503    0  0.34436433012E+01  0.26235597098E+02 -0.35981766201E+01  0.27114610623E+02  0.47000000000E+01 0. -1.
         -5    1    3    3    0  502  0.68382476287E+02  0.33209534112E+02 -0.24628766996E+03  0.25779593208E+03  0.47000000000E+01 0.  1.
<mgrwt>
<rscale>  0 0.14486056E+03</rscale>
<asrwt>0</asrwt>
<pdfrwt beam="1">  1        2 0.64136962E-01 0.15251548E+03</pdfrwt>
<pdfrwt beam="2">  1       -2 0.78305014E-02 0.15251548E+03</pdfrwt>
<totfact> 0.71790949E+03</totfact>
</mgrwt>
</event>
<event>
 8    1  0.3551276E-004  0.1314681E+03  0.7546771E-02  0.1244161E+00
          2   -1    0    0  501    0  0.00000000000E+00  0.00000000000E+00  0.16646858871E+03  0.16646858871E+03  0.00000000000E+00 0.  1.
         -2   -1    0    0    0  501 -0.00000000000E+00 -0.00000000000E+00 -0.10724742235E+03  0.10724742235E+03  0.00000000000E+00 0. -1.
         25    2    1    2    0    0  0.37990122582E+02 -0.14711451387E+02 -0.42669459428E+02  0.13821918023E+03  0.12499673116E+03 0.  0.
         23    2    1    2    0    0 -0.37990122582E+02  0.14711451387E+02  0.10189062579E+03  0.13549683082E+03  0.79485944190E+02 0.  0.
          5    1    4    4  502    0  0.20971770488E+01  0.38705170920E+02  0.28382028399E+02  0.48271295234E+02  0.47000000000E+01 0. -1.
         -5    1    3    3    0  503  0.34249213265E+02  0.51715573714E+02 -0.70458283800E+01  0.62603856682E+02  0.47000000000E+01 0. -1.
          5    1    3    3  503    0  0.37409093171E+01 -0.66427025101E+02 -0.35623631048E+02  0.75615323549E+02  0.47000000000E+01 0. -1.
         -5    1    4    4    0  502 -0.40087299631E+02 -0.23993719533E+02  0.73508597389E+02  0.87225535589E+02  0.47000000000E+01 0.  1.
<mgrwt>
<rscale>  0 0.11935756E+03</rscale>
<asrwt>0</asrwt>
<pdfrwt beam="1">  1        2 0.25610552E-01 0.13146809E+03</pdfrwt>
<pdfrwt beam="2">  1       -2 0.16499603E-01 0.13146809E+03</pdfrwt>
<totfact> 0.58043038E+03</totfact>
</mgrwt>
</event>
<event>
 8    1  0.3551276E-004  0.1468130E+03  0.7546771E-02  0.1214318E+00
          3   -1    0    0  501    0  0.00000000000E+00  0.00000000000E+00  0.19632249354E+02  0.19632249354E+02  0.00000000000E+00 0. -1.
         -3   -1    0    0    0  501 -0.00000000000E+00 -0.00000000000E+00 -0.90316000215E+03  0.90316000215E+03  0.00000000000E+00 0.  1.
         25    2    1    2    0    0 -0.74151294464E+02 -0.20768607797E+02 -0.45660177716E+03  0.47962405852E+03  0.12499722023E+03 0.  0.
         23    2    1    2    0    0  0.74151294464E+02  0.20768607797E+02 -0.42692597564E+03  0.44316819299E+03  0.90567704279E+02 0.  0.
          5    1    3    3  502    0  0.65362025194E+01 -0.52304943151E+02 -0.10638346622E+03  0.11881944667E+03  0.47000000000E+01 0. -1.
         -5    1    4    4    0  503  0.86372213173E+02 -0.39563589742E+01 -0.36633618420E+03  0.37643073976E+03  0.47000000000E+01 0.  1.
          5    1    4    4  503    0 -0.12220918710E+02  0.24724966771E+02 -0.60589791439E+02  0.66737453222E+02  0.47000000000E+01 0. -1.
         -5    1    3    3    0  502 -0.80687496983E+02  0.31536335354E+02 -0.35021831093E+03  0.36080461185E+03  0.47000000000E+01 0. -1.
<mgrwt>
<rscale>  0 0.13926751E+03</rscale>
<asrwt>0</asrwt>
<pdfrwt beam="1">  1        3 0.30203455E-02 0.14681299E+03</pdfrwt>
<pdfrwt beam="2">  1       -3 0.13894772E+00 0.14681299E+03</pdfrwt>
<totfact> 0.49119173E+02</totfact>
</mgrwt>
</event>
<event>
 8    1  0.3551276E-004  0.1290822E+03  0.7546771E-02  0.1242751E+00
         -2   -1    0    0    0  501 -0.00000000000E+00  0.00000000000E+00  0.24918830323E+03  0.24918830323E+03  0.00000000000E+00 0.  1.
          2   -1    0    0  501    0  0.00000000000E+00 -0.00000000000E+00 -0.51556341016E+02  0.51556341016E+02  0.00000000000E+00 0. -1.
         25    2    1    2    0    0  0.11217414800E+02 -0.30143398279E+02  0.10264300674E+03  0.16491759742E+03  0.12501108851E+03 0.  0.
         23    2    1    2    0    0 -0.11217414800E+02  0.30143398279E+02  0.94988955470E+02  0.13582704682E+03  0.91605841152E+02 0.  0.
          5    1    3    3  502    0  0.51200775397E+02  0.16400039801E+02  0.85374081914E+02  0.10100150776E+03  0.47000000000E+01 0.  1.
         -5    1    3    3    0  502 -0.39983360596E+02 -0.46543438080E+02  0.17268924827E+02  0.63916089661E+02  0.47000000000E+01 0.  1.
          5    1    4    4  503    0 -0.25220736939E+02 -0.27444228881E+02  0.39274979119E+02  0.54349657362E+02  0.47000000000E+01 0. -1.
         -5    1    4    4    0  503  0.14003322138E+02  0.57587627160E+02  0.55713976351E+02  0.81477389462E+02  0.47000000000E+01 0.  1.
<mgrwt>
<rscale>  0 0.12021020E+03</rscale>
<asrwt>0</asrwt>
<pdfrwt beam="1">  1        2 0.79317449E-02 0.12908225E+03</pdfrwt>
<pdfrwt beam="2">  1       -2 0.38336661E-01 0.12908225E+03</pdfrwt>
<totfact> 0.52549814E+03</totfact>
</mgrwt>
</event>
<event>
 8    1  0.3551276E-004  0.3086078E+03  0.7546771E-02  0.1082519E+00
         -1   -1    0    0    0  501 -0.00000000000E+00  0.00000000000E+00  0.37304987944E+03  0.37304987944E+03  0.00000000000E+00 0.  1.
          1   -1    0    0  501    0  0.00000000000E+00 -0.00000000000E+00 -0.24562798819E+03  0.24562798819E+03  0.00000000000E+00 0. -1.
         25    2    1    2    0    0  0.21039438131E+03  0.18801261475E+03  0.53569309598E+02  0.31322271644E+03  0.12499704066E+03 0.  0.
         23    2    1    2    0    0 -0.21039438131E+03 -0.18801261475E+03  0.73852581649E+02  0.30545515119E+03  0.90741978055E+02 0.  0.
          5    1    3    3  502    0  0.22708350895E+03  0.17165214297E+03  0.47634443237E+02  0.28865638466E+03  0.47000000000E+01 0.  1.
         -5    1    4    4    0  503 -0.17082808693E+03 -0.14736772226E+03  0.94858806769E+02  0.24478513858E+03  0.47000000000E+01 0. -1.
          5    1    4    4  503    0 -0.39566294379E+02 -0.40644892483E+02 -0.21006225120E+02  0.60670012606E+02  0.47000000000E+01 0. -1.
         -5    1    3    3    0  502 -0.16689127644E+02  0.16360471771E+02  0.59348663606E+01  0.24566331774E+02  0.47000000000E+01 0.  1.
<mgrwt>
<rscale>  0 0.30550766E+03</rscale>
<asrwt>0</asrwt>
<pdfrwt beam="1">  1        1 0.37788921E-01 0.30860784E+03</pdfrwt>
<pdfrwt beam="2">  1       -1 0.57392289E-01 0.30860784E+03</pdfrwt>
<totfact> 0.35890103E+02</totfact>
</mgrwt>
</event>
<event>
 8    1  0.3551276E-004  0.1290702E+03  0.7546771E-02  0.1247300E+00
         -2   -1    0    0    0  501 -0.00000000000E+00  0.00000000000E+00  0.10997807111E+03  0.10997807111E+03  0.00000000000E+00 0.  1.
          2   -1    0    0  501    0  0.00000000000E+00 -0.00000000000E+00 -0.10806827297E+03  0.10806827297E+03  0.00000000000E+00 0. -1.
         25    2    1    2    0    0 -0.32036815440E+02  0.28232453185E+01 -0.49841776466E+01  0.12916636194E+03  0.12499911509E+03 0.  0.
         23    2    1    2    0    0  0.32036815440E+02 -0.28232453185E+01  0.68939757903E+01  0.88879982134E+02  0.82569946495E+02 0.  0.
          5    1    3    3  502    0  0.20714620289E+02  0.25668982862E+01 -0.53327170708E+02  0.57459216809E+02  0.47000000000E+01 0.  1.
         -5    1    3    3    0  502 -0.52751435729E+02  0.25634703229E+00  0.48342993061E+02  0.71707145135E+02  0.47000000000E+01 0.  1.
          5    1    4    4  503    0  0.97447526026E+01 -0.30965339892E+02 -0.24513113142E+02  0.40948689769E+02  0.47000000000E+01 0. -1.
         -5    1    4    4    0  503  0.22292062838E+02  0.28142094573E+02  0.31407088932E+02  0.47931292365E+02  0.47000000000E+01 0.  1.
<mgrwt>
<rscale>  0 0.11748781E+03</rscale>
<asrwt>0</asrwt>
<pdfrwt beam="1">  1        2 0.16625888E-01 0.12907016E+03</pdfrwt>
<pdfrwt beam="2">  1       -2 0.16919703E-01 0.12907016E+03</pdfrwt>
<totfact> 0.90437363E+03</totfact>
</mgrwt>
</event>
<event>
 8    1  0.3551276E-004  0.1425116E+03  0.7546771E-02  0.1223345E+00
         -1   -1    0    0    0  501 -0.00000000000E+00  0.00000000000E+00  0.41215336020E+03  0.41215336020E+03  0.00000000000E+00 0.  1.
          1   -1    0    0  501    0  0.00000000000E+00 -0.00000000000E+00 -0.38508353663E+02  0.38508353663E+02  0.00000000000E+00 0. -1.
         25    2    1    2    0    0  0.54627908681E+02  0.41148643561E+02  0.24037216105E+03  0.27944289571E+03  0.12502854427E+03 0.  0.
         23    2    1    2    0    0 -0.54627908681E+02 -0.41148643561E+02  0.13327284549E+03  0.17121881815E+03  0.82926552270E+02 0.  0.
          5    1    3    3  502    0 -0.10654207924E+02  0.32576349775E+02  0.19800900922E+03  0.20100842878E+03  0.47000000000E+01 0. -1.
         -5    1    3    3    0  502  0.65282116605E+02  0.85722937853E+01  0.42363151834E+02  0.78434466929E+02  0.47000000000E+01 0. -1.
          5    1    4    4  503    0 -0.13315988038E+02  0.25364430505E+02  0.37507745078E+02  0.47429851498E+02  0.47000000000E+01 0. -1.
         -5    1    4    4    0  503 -0.41311920643E+02 -0.66513074066E+02  0.95765100411E+02  0.12378896666E+03  0.47000000000E+01 0.  1.
<mgrwt>
<rscale>  0 0.13280985E+03</rscale>
<asrwt>0</asrwt>
<pdfrwt beam="1">  1        1 0.59243624E-02 0.14251160E+03</pdfrwt>
<pdfrwt beam="2">  1       -1 0.63408206E-01 0.14251160E+03</pdfrwt>
<totfact> 0.33106208E+03</totfact>
</mgrwt>
</event>
<event>
 8    1  0.3551276E-004  0.2025983E+03  0.7546771E-02  0.1151723E+00
         -2   -1    0    0    0  501 -0.00000000000E+00  0.00000000000E+00  0.13056417192E+03  0.13056417192E+03  0.00000000000E+00 0.  1.
          2   -1    0    0  501    0  0.00000000000E+00 -0.00000000000E+00 -0.28744517070E+03  0.28744517070E+03  0.00000000000E+00 0. -1.
         25    2    1    2    0    0  0.50433180104E+02 -0.15125257550E+03 -0.99217537054E+02  0.22558851800E+03  0.12500085018E+03 0.  0.
         23    2    1    2    0    0 -0.50433180104E+02  0.15125257550E+03 -0.57663461727E+02  0.19242082461E+03  0.90993690309E+02 0.  0.
          5    1    3    3  502    0  0.53902273116E+02 -0.97706398038E+02  0.11359428996E+01  0.11169322106E+03  0.47000000000E+01 0.  1.
         -5    1    4    4    0  503  0.24576677788E+02  0.52951953613E+02 -0.81002908407E+01  0.59123829326E+02  0.47000000000E+01 0.  1.
          5    1    4    4  503    0 -0.75009857892E+02  0.98300621886E+02 -0.49563170887E+02  0.13329699529E+03  0.47000000000E+01 0. -1.
         -5    1    3    3    0  502 -0.34690930125E+01 -0.53546177461E+02 -0.10035347995E+03  0.11389529694E+03  0.47000000000E+01 0.  1.
<mgrwt>
<rscale>  0 0.19766586E+03</rscale>
<asrwt>0</asrwt>
<pdfrwt beam="1">  1        2 0.44222334E-01 0.20259827E+03</pdfrwt>
<pdfrwt beam="2">  1       -2 0.20086796E-01 0.20259827E+03</pdfrwt>
<totfact> 0.23604306E+03</totfact>
</mgrwt>
</event>
<event>
 8    1  0.3551276E-004  0.1654416E+03  0.7546771E-02  0.1189487E+00
          2   -1    0    0  501    0  0.00000000000E+00  0.00000000000E+00  0.45087575764E+02  0.45087575764E+02  0.00000000000E+00 0. -1.
         -2   -1    0    0    0  501 -0.00000000000E+00 -0.00000000000E+00 -0.53957720449E+03  0.53957720449E+03  0.00000000000E+00 0.  1.
         25    2    1    2    0    0  0.10680458102E+03 -0.18399541908E+02 -0.31358682880E+03  0.35455270733E+03  0.12500064565E+03 0.  0.
         23    2    1    2    0    0 -0.10680458102E+03  0.18399541908E+02 -0.18090279993E+03  0.23011207292E+03  0.92086814544E+02 0.  0.
          5    1    3    3  502    0  0.39558835034E+02  0.53567640754E+02 -0.12129401290E+03  0.13845115070E+03  0.47000000000E+01 0.  1.
         -5    1    3    3    0  502  0.67245745985E+02 -0.71967182662E+02 -0.19229281590E+03  0.21610155664E+03  0.47000000000E+01 0.  1.
          5    1    4    4  503    0 -0.66374635973E+02 -0.34898134269E+02 -0.97428030716E+02  0.12303569907E+03  0.47000000000E+01 0. -1.
         -5    1    4    4    0  503 -0.40429945046E+02  0.53297676177E+02 -0.83474769213E+02  0.10707637385E+03  0.47000000000E+01 0.  1.
<mgrwt>
<rscale>  0 0.15930214E+03</rscale>
<asrwt>0</asrwt>
<pdfrwt beam="1">  1        2 0.69365501E-02 0.16544160E+03</pdfrwt>
<pdfrwt beam="2">  1       -2 0.83011878E-01 0.16544160E+03</pdfrwt>
<totfact> 0.13121212E+03</totfact>
</mgrwt>
</event>
<event>
 8    1  0.3551276E-004  0.1345339E+03  0.7546771E-02  0.1233578E+00
         -2   -1    0    0    0  501 -0.00000000000E+00  0.00000000000E+00  0.37958955032E+03  0.37958955032E+03  0.00000000000E+00 0.  1.
          2   -1    0    0  501    0  0.00000000000E+00 -0.00000000000E+00 -0.55401943645E+02  0.55401943645E+02  0.00000000000E+00 0. -1.
         25    2    1    2    0    0 -0.32057239639E+01 -0.49657186138E+02  0.52698592186E+02  0.14448706037E+03  0.12499302459E+03 0.  0.
         23    2    1    2    0    0  0.32057239639E+01  0.49657186138E+02  0.27148901449E+03  0.29050443360E+03  0.90611412899E+02 0.  0.
          5    1    3    3  502    0 -0.49913553298E+02 -0.52678257033E+02 -0.14794781221E+01  0.72736788645E+02  0.47000000000E+01 0.  1.
         -5    1    4    4    0  503 -0.16088423109E+02  0.32966151069E+02  0.25915481567E+03  0.26178027610E+03  0.47000000000E+01 0.  1.
          5    1    4    4  503    0  0.19294147073E+02  0.16691035069E+02  0.12334198827E+02  0.28724157492E+02  0.47000000000E+01 0. -1.
         -5    1    3    3    0  502  0.46707829334E+02  0.30210708955E+01  0.54178070308E+02  0.71750271726E+02  0.47000000000E+01 0.  1.
<mgrwt>
<rscale>  0 0.12595878E+03</rscale>
<asrwt>0</asrwt>
<pdfrwt beam="1">  1        2 0.85233762E-02 0.13453390E+03</pdfrwt>
<pdfrwt beam="2">  1       -2 0.58398391E-01 0.13453390E+03</pdfrwt>
<totfact> 0.21142819E+03</totfact>
</mgrwt>
</event>
<event>
 8    1  0.3551276E-004  0.1312818E+03  0.7546771E-02  0.1238935E+00
          4   -1    0    0  501    0  0.00000000000E+00  0.00000000000E+00  0.37743230406E+02  0.37743230406E+02  0.00000000000E+00 0.  1.
         -4   -1    0    0    0  501 -0.00000000000E+00 -0.00000000000E+00 -0.35384124546E+03  0.35384124546E+03  0.00000000000E+00 0. -1.
         25    2    1    2    0    0  0.39950850044E+02  0.37663624241E+01 -0.18618357491E+03  0.22781405802E+03  0.12499866224E+03 0.  0.
         23    2    1    2    0    0 -0.39950850044E+02 -0.37663624241E+01 -0.12991444015E+03  0.16377041784E+03  0.91283799754E+02 0.  0.
          5    1    3    3  502    0 -0.32548663119E+02  0.67690914603E+01 -0.68055118819E+01  0.34258445119E+02  0.47000000000E+01 0.  1.
         -5    1    3    3    0  502  0.72499513163E+02 -0.30027290361E+01 -0.17937806303E+03  0.19355561290E+03  0.47000000000E+01 0.  1.
          5    1    4    4  503    0 -0.41004417610E+02  0.34693960971E+02 -0.10399697555E+03  0.11714304980E+03  0.47000000000E+01 0. -1.
         -5    1    4    4    0  503  0.10535675660E+01 -0.38460323395E+02 -0.25917464592E+02  0.46627368048E+02  0.47000000000E+01 0.  1.
<mgrwt>
<rscale>  0 0.12255841E+03</rscale>
<asrwt>0</asrwt>
<pdfrwt beam="1">  1        4 0.58066507E-02 0.13128184E+03</pdfrwt>
<pdfrwt beam="2">  1       -4 0.54437116E-01 0.13128184E+03</pdfrwt>
<totfact> 0.10001397E+03</totfact>
</mgrwt>
</event>
<event>
 8    1  0.3551276E-004  0.1346034E+03  0.7546771E-02  0.1230285E+00
         -2   -1    0    0    0  501 -0.00000000000E+00  0.00000000000E+00  0.49659715081E+02  0.49659715081E+02  0.00000000000E+00 0. -1.
          2   -1    0    0  501    0  0.00000000000E+00 -0.00000000000E+00 -0.48426467337E+03  0.48426467337E+03  0.00000000000E+00 0.  1.
         25    2    1    2    0    0  0.44182355445E+02 -0.23229843213E+02 -0.67533760758E+02  0.15059512230E+03  0.12500550336E+03 0.  0.
         23    2    1    2    0    0 -0.44182355445E+02  0.23229843213E+02 -0.36707119753E+03  0.38332926614E+03  0.98530990454E+02 0.  0.
          5    1    3    3  502    0  0.75728428944E+02  0.20597259410E+02 -0.27810605143E+02  0.83394015396E+02  0.47000000000E+01 0.  1.
         -5    1    4    4    0  503 -0.49242318810E+02  0.50896629595E+02 -0.32393922937E+03  0.33162326093E+03  0.47000000000E+01 0.  1.
          5    1    4    4  503    0  0.50599633656E+01 -0.27666786382E+02 -0.43131968163E+02  0.51706005218E+02  0.47000000000E+01 0. -1.
         -5    1    3    3    0  502 -0.31546073499E+02 -0.43827102623E+02 -0.39723155616E+02  0.67201106907E+02  0.47000000000E+01 0.  1.
<mgrwt>
<rscale>  0 0.12811127E+03</rscale>
<asrwt>0</asrwt>
<pdfrwt beam="1">  1        2 0.74502257E-01 0.13460342E+03</pdfrwt>
<pdfrwt beam="2">  1       -2 0.76399562E-02 0.13460342E+03</pdfrwt>
<totfact> 0.62930233E+03</totfact>
</mgrwt>
</event>
<event>
 8    1  0.3551276E-004  0.1267119E+03  0.7546771E-02  0.1246899E+00
          1   -1    0    0  501    0  0.00000000000E+00  0.00000000000E+00  0.38116498006E+03  0.38116498006E+03  0.00000000000E+00 0. -1.
         -1   -1    0    0    0  501 -0.00000000000E+00 -0.00000000000E+00 -0.32112473477E+02  0.32112473477E+02  0.00000000000E+00 0.  1.
         25    2    1    2    0    0 -0.20092566787E+02  0.51753016401E+01  0.20748511692E+03  0.24311723801E+03  0.12500169073E+03 0.  0.
         23    2    1    2    0    0  0.20092566787E+02 -0.51753016401E+01  0.14156738966E+03  0.17016021553E+03  0.92101455728E+02 0.  0.
          5    1    4    4  502    0  0.12565722059E+02  0.42154690072E+02  0.50432824424E+02  0.67085580010E+02  0.47000000000E+01 0. -1.
         -5    1    3    3    0  503 -0.18405278563E+02  0.25739759032E+02  0.21740463502E+03  0.21974565935E+03  0.47000000000E+01 0. -1.
          5    1    3    3  503    0 -0.16872882235E+01 -0.20564457392E+02 -0.99195181024E+01  0.23371578654E+02  0.47000000000E+01 0. -1.
         -5    1    4    4    0  502  0.75268447277E+01 -0.47329991712E+02  0.91134565236E+02  0.10307463552E+03  0.47000000000E+01 0.  1.
<mgrwt>
<rscale>  0 0.11772460E+03</rscale>
<asrwt>0</asrwt>
<pdfrwt beam="1">  1        1 0.58640763E-01 0.12671195E+03</pdfrwt>
<pdfrwt beam="2">  1       -1 0.49403808E-02 0.12671195E+03</pdfrwt>
<totfact> 0.10887010E+04</totfact>
</mgrwt>
</event>
<event>
 8    1  0.3551276E-004  0.1501765E+03  0.7546771E-02  0.1209322E+00
         -2   -1    0    0    0  501 -0.00000000000E+00  0.00000000000E+00  0.43355390693E+02  0.43355390693E+02  0.00000000000E+00 0.  1.
          2   -1    0    0  501    0  0.00000000000E+00 -0.00000000000E+00 -0.43972222429E+03  0.43972222429E+03  0.00000000000E+00 0. -1.
         25    2    1    2    0    0 -0.12878231416E+02 -0.82234077656E+02 -0.24900178164E+03  0.29078317978E+03  0.12499871204E+03 0.  0.
         23    2    1    2    0    0  0.12878231416E+02  0.82234077656E+02 -0.14736505196E+03  0.19229443520E+03  0.91281974665E+02 0.  0.
          5    1    3    3  502    0 -0.36259439768E+02 -0.71741054219E+02 -0.61086472036E+02  0.10107013851E+03  0.47000000000E+01 0.  1.
         -5    1    4    4    0  503 -0.33713636053E+02  0.65479255558E+02 -0.88164647977E+02  0.11497494213E+03  0.47000000000E+01 0.  1.
          5    1    4    4  503    0  0.46591867469E+02  0.16754822098E+02 -0.59200403985E+02  0.77319493077E+02  0.47000000000E+01 0. -1.
         -5    1    3    3    0  502  0.23381208352E+02 -0.10493023437E+02 -0.18791530960E+03  0.18971304127E+03  0.47000000000E+01 0.  1.
<mgrwt>
<rscale>  0 0.14302046E+03</rscale>
<asrwt>0</asrwt>
<pdfrwt beam="1">  1        2 0.67649576E-01 0.15017646E+03</pdfrwt>
<pdfrwt beam="2">  1       -2 0.66700598E-02 0.15017646E+03</pdfrwt>
<totfact> 0.86650760E+03</totfact>
</mgrwt>
</event>
<event>
 8    1  0.3551276E-004  0.2580121E+03  0.7546771E-02  0.1110773E+00
          2   -1    0    0  501    0  0.00000000000E+00  0.00000000000E+00  0.64342523465E+03  0.64342523465E+03  0.00000000000E+00 0. -1.
         -2   -1    0    0    0  501 -0.00000000000E+00 -0.00000000000E+00 -0.11644282867E+03  0.11644282867E+03  0.00000000000E+00 0.  1.
         25    2    1    2    0    0 -0.24731434197E+02 -0.22434820168E+03  0.11649341433E+03  0.28309179894E+03  0.12500596631E+03 0.  0.
         23    2    1    2    0    0  0.24731434197E+02  0.22434820168E+03  0.41048899165E+03  0.47677626437E+03  0.88716596898E+02 0.  0.
          5    1    4    4  502    0 -0.27257939167E+02  0.10046380780E+03  0.13792079599E+03  0.17285892483E+03  0.47000000000E+01 0. -1.
         -5    1    3    3    0  503 -0.57016607891E+02 -0.96177283876E+02  0.99504321271E+02  0.14974699817E+03  0.47000000000E+01 0.  1.
          5    1    3    3  503    0  0.32285173694E+02 -0.12817091780E+03  0.16989093059E+02  0.13334480077E+03  0.47000000000E+01 0.  1.
         -5    1    4    4    0  502  0.51989373364E+02  0.12388439388E+03  0.27256819566E+03  0.30391733954E+03  0.47000000000E+01 0.  1.
<mgrwt>
<rscale>  0 0.25404785E+03</rscale>
<asrwt>0</asrwt>
<pdfrwt beam="1">  1        2 0.98988496E-01 0.25801211E+03</pdfrwt>
<pdfrwt beam="2">  1       -2 0.17914282E-01 0.25801211E+03</pdfrwt>
<totfact> 0.11801829E+03</totfact>
</mgrwt>
</event>
<event>
 8    1  0.3551276E-004  0.1557066E+03  0.7546771E-02  0.1201548E+00
         -2   -1    0    0    0  501 -0.00000000000E+00  0.00000000000E+00  0.31574895532E+03  0.31574895532E+03  0.00000000000E+00 0.  1.
          2   -1    0    0  501    0  0.00000000000E+00 -0.00000000000E+00 -0.65091692273E+02  0.65091692273E+02  0.00000000000E+00 0. -1.
         25    2    1    2    0    0  0.74734295465E+02 -0.55097694358E+02  0.13685394203E+03  0.20730064985E+03  0.12499434842E+03 0.  0.
         23    2    1    2    0    0 -0.74734295465E+02  0.55097694358E+02  0.11380332102E+03  0.17353999775E+03  0.92433565870E+02 0.  0.
          5    1    3    3  502    0  0.10298069923E+03 -0.55712808689E+02  0.74969123984E+02  0.13910931319E+03  0.47000000000E+01 0.  1.
         -5    1    4    4    0  503 -0.33160380266E+02  0.23688799239E+02  0.11407081179E+03  0.12122297691E+03  0.47000000000E+01 0.  1.
          5    1    4    4  503    0 -0.41573915200E+02  0.31408895119E+02 -0.26749076759E+00  0.52317020834E+02  0.47000000000E+01 0. -1.
         -5    1    3    3    0  502 -0.28246403764E+02  0.61511433053E+00  0.61884818044E+02  0.68191336660E+02  0.47000000000E+01 0.  1.
<mgrwt>
<rscale>  0 0.14912849E+03</rscale>
<asrwt>0</asrwt>
<pdfrwt beam="1">  1        2 0.10014107E-01 0.15570664E+03</pdfrwt>
<pdfrwt beam="2">  1       -2 0.48576762E-01 0.15570664E+03</pdfrwt>
<totfact> 0.25251282E+03</totfact>
</mgrwt>
</event>
<event>
 8    1  0.3551276E-004  0.1841877E+03  0.7546771E-02  0.1169211E+00
         -4   -1    0    0    0  501 -0.00000000000E+00  0.00000000000E+00  0.11800564166E+03  0.11800564166E+03  0.00000000000E+00 0.  1.
          4   -1    0    0  501    0  0.00000000000E+00 -0.00000000000E+00 -0.27008799779E+03  0.27008799779E+03  0.00000000000E+00 0. -1.
         25    2    1    2    0    0 -0.12912745695E+03  0.40330685600E+02 -0.34515488786E+02  0.18739381921E+03  0.12499864069E+03 0.  0.
         23    2    1    2    0    0  0.12912745695E+03 -0.40330685600E+02 -0.11756686734E+03  0.20069982023E+03  0.90321565552E+02 0.  0.
          5    1    4    4  502    0  0.81819691175E+02  0.16808614451E+02 -0.38225621173E+02  0.91979777657E+02  0.47000000000E+01 0. -1.
         -5    1    3    3    0  503 -0.76254970054E+02  0.76282960001E+02  0.11362004721E+02  0.10855918015E+03  0.47000000000E+01 0. -1.
          5    1    3    3  503    0 -0.52872486896E+02 -0.35952274401E+02 -0.45877493507E+02  0.78834639060E+02  0.47000000000E+01 0. -1.
         -5    1    4    4    0  502  0.47307765775E+02 -0.57139300052E+02 -0.79341246171E+02  0.10872004257E+03  0.47000000000E+01 0.  1.
<mgrwt>
<rscale>  0 0.17855256E+03</rscale>
<asrwt>0</asrwt>
<pdfrwt beam="1">  1        4 0.41551999E-01 0.18418774E+03</pdfrwt>
<pdfrwt beam="2">  1       -4 0.18154714E-01 0.18418774E+03</pdfrwt>
<totfact> 0.26590987E+02</totfact>
</mgrwt>
</event>
<event>
 8    1  0.3551276E-004  0.1468032E+03  0.7546771E-02  0.1213854E+00
          1   -1    0    0  501    0  0.00000000000E+00  0.00000000000E+00  0.22746930661E+03  0.22746930661E+03  0.00000000000E+00 0. -1.
         -1   -1    0    0    0  501 -0.00000000000E+00 -0.00000000000E+00 -0.12215034111E+03  0.12215034111E+03  0.00000000000E+00 0.  1.
         25    2    1    2    0    0  0.64696140307E+02 -0.41730198945E+02  0.16046258725E+03  0.21748430911E+03  0.12499673087E+03 0.  0.
         23    2    1    2    0    0 -0.64696140307E+02  0.41730198945E+02 -0.55143621738E+02  0.13213533861E+03  0.92151660956E+02 0.  0.
          5    1    4    4  502    0 -0.37235760230E+02  0.70523019521E+02 -0.39561439606E+02  0.89147044965E+02  0.47000000000E+01 0. -1.
         -5    1    3    3    0  503  0.10226854078E+01 -0.70099864638E+02  0.11285103552E+03  0.13293789199E+03  0.47000000000E+01 0.  1.
          5    1    3    3  503    0  0.63673454899E+02  0.28369665693E+02  0.47611551726E+02  0.84546417121E+02  0.47000000000E+01 0.  1.
         -5    1    4    4    0  502 -0.27460380077E+02 -0.28792820576E+02 -0.15582182132E+02  0.42988293647E+02  0.47000000000E+01 0.  1.
<mgrwt>
<rscale>  0 0.13961057E+03</rscale>
<asrwt>0</asrwt>
<pdfrwt beam="1">  1        1 0.34995278E-01 0.14680321E+03</pdfrwt>
<pdfrwt beam="2">  1       -1 0.18792360E-01 0.14680321E+03</pdfrwt>
<totfact> 0.27060327E+03</totfact>
</mgrwt>
</event>
<event>
 8    1  0.3551276E-004  0.1654556E+03  0.7546771E-02  0.1188916E+00
         -2   -1    0    0    0  501 -0.00000000000E+00  0.00000000000E+00  0.47982211886E+02  0.47982211886E+02  0.00000000000E+00 0.  1.
          2   -1    0    0  501    0  0.00000000000E+00 -0.00000000000E+00 -0.82252941308E+03  0.82252941308E+03  0.00000000000E+00 0. -1.
         25    2    1    2    0    0  0.10833660875E+03  0.37129675421E+01 -0.67618167279E+03  0.69613015644E+03  0.12499973268E+03 0.  0.
         23    2    1    2    0    0 -0.10833660875E+03 -0.37129675421E+01 -0.98365528408E+02  0.17438146852E+03  0.94776117579E+02 0.  0.
          5    1    4    4  502    0 -0.33030146175E+02  0.19668220151E+02 -0.86143344826E+02  0.94448903107E+02  0.47000000000E+01 0. -1.
         -5    1    4    4    0  502 -0.75306462570E+02 -0.23381187693E+02 -0.12222183582E+02  0.79932565418E+02  0.47000000000E+01 0.  1.
          5    1    3    3  503    0  0.62349884488E+02  0.14551428431E+02 -0.61665222149E+03  0.61998492275E+03  0.47000000000E+01 0.  1.
         -5    1    3    3    0  503  0.45986724258E+02 -0.10838460889E+02 -0.59529451291E+02  0.76145233688E+02  0.47000000000E+01 0.  1.
<mgrwt>
<rscale>  0 0.15980637E+03</rscale>
<asrwt>0</asrwt>
<pdfrwt beam="1">  1        2 0.12654299E+00 0.16545555E+03</pdfrwt>
<pdfrwt beam="2">  1       -2 0.73818788E-02 0.16545555E+03</pdfrwt>
<totfact> 0.36134979E+03</totfact>
</mgrwt>
</event>
<event>
 8    1  0.3551276E-004  0.1429021E+03  0.7546771E-02  0.1220112E+00
         -2   -1    0    0    0  501 -0.00000000000E+00  0.00000000000E+00  0.21785300950E+02  0.21785300950E+02  0.00000000000E+00 0.  1.
          2   -1    0    0  501    0  0.00000000000E+00 -0.00000000000E+00 -0.96654576804E+03  0.96654576804E+03  0.00000000000E+00 0. -1.
         25    2    1    2    0    0  0.48067567634E+02 -0.49851946366E+02 -0.28542850495E+03  0.31920283846E+03  0.12500125209E+03 0.  0.
         23    2    1    2    0    0 -0.48067567634E+02  0.49851946366E+02 -0.65933196213E+03  0.66912823053E+03  0.90654536500E+02 0.  0.
          5    1    3    3  502    0 -0.85825074514E+01 -0.26213459970E+02 -0.24259704556E+03  0.24420528543E+03  0.47000000000E+01 0. -1.
         -5    1    3    3    0  502  0.56650075086E+02 -0.23638486396E+02 -0.42831459399E+02  0.74997553030E+02  0.47000000000E+01 0. -1.
          5    1    4    4  503    0  0.25782477824E+02  0.15204151912E+02 -0.12714307205E+03  0.13070330205E+03  0.47000000000E+01 0. -1.
         -5    1    4    4    0  503 -0.73850045458E+02  0.34647794454E+02 -0.53218889008E+03  0.53842492848E+03  0.47000000000E+01 0.  1.
<mgrwt>
<rscale>  0 0.13507662E+03</rscale>
<asrwt>0</asrwt>
<pdfrwt beam="1">  1        2 0.14869937E+00 0.14290214E+03</pdfrwt>
<pdfrwt beam="2">  1       -2 0.33515843E-02 0.14290214E+03</pdfrwt>
<totfact> 0.95582973E+03</totfact>
</mgrwt>
</event>
<event>
 8    1  0.3551276E-004  0.1266719E+03  0.7546771E-02  0.1247088E+00
         -1   -1    0    0    0  501 -0.00000000000E+00  0.00000000000E+00  0.74739431940E+02  0.74739431940E+02  0.00000000000E+00 0.  1.
          1   -1    0    0  501    0  0.00000000000E+00 -0.00000000000E+00 -0.16859514868E+03  0.16859514868E+03  0.00000000000E+00 0. -1.
         25    2    1    2    0    0 -0.22284149814E+01  0.20464628447E+02 -0.31868374693E+02  0.13061912076E+03  0.12498797763E+03 0.  0.
         23    2    1    2    0    0  0.22284149814E+01 -0.20464628447E+02 -0.61987342047E+02  0.11271545986E+03  0.91861730155E+02 0.  0.
          5    1    4    4  502    0  0.25443639802E+02 -0.22924996226E+02 -0.77111037606E+02  0.84505244683E+02  0.47000000000E+01 0. -1.
         -5    1    3    3    0  503  0.22683328905E+02  0.55554463351E+02  0.19660005576E+02  0.63320120244E+02  0.47000000000E+01 0. -1.
          5    1    3    3  503    0 -0.24911743886E+02 -0.35089834905E+02 -0.51528380269E+02  0.67299000515E+02  0.47000000000E+01 0. -1.
         -5    1    4    4    0  502 -0.23215224821E+02  0.24603677799E+01  0.15123695559E+02  0.28210215179E+02  0.47000000000E+01 0.  1.
<mgrwt>
<rscale>  0 0.11761256E+03</rscale>
<asrwt>0</asrwt>
<pdfrwt beam="1">  1        1 0.25937715E-01 0.12667187E+03</pdfrwt>
<pdfrwt beam="2">  1       -1 0.11498374E-01 0.12667187E+03</pdfrwt>
<totfact> 0.84036414E+03</totfact>
</mgrwt>
</event>
<event>
 8    1  0.3551276E-004  0.1365279E+03  0.7546771E-02  0.1230260E+00
          1   -1    0    0  501    0  0.00000000000E+00  0.00000000000E+00  0.12286144127E+04  0.12286144127E+04  0.00000000000E+00 0. -1.
         -1   -1    0    0    0  501 -0.00000000000E+00 -0.00000000000E+00 -0.12053164236E+02  0.12053164236E+02  0.00000000000E+00 0.  1.
         25    2    1    2    0    0 -0.51168486662E+02 -0.19911253911E+02  0.73886062429E+03  0.75136866972E+03  0.12500073460E+03 0.  0.
         23    2    1    2    0    0  0.51168486662E+02  0.19911253911E+02  0.47770062416E+03  0.48929890720E+03  0.90558612003E+02 0.  0.
          5    1    4    4  502    0  0.58312460382E+02 -0.14035488975E+02  0.39408577444E+03  0.39865150897E+03  0.47000000000E+01 0. -1.
         -5    1    4    4    0  502 -0.71439737197E+01  0.33946742885E+02  0.83614849711E+02  0.90647398226E+02  0.47000000000E+01 0.  1.
          5    1    3    3  503    0  0.13843088277E+02 -0.58386568854E+02  0.29133262036E+03  0.29748513946E+03  0.47000000000E+01 0.  1.
         -5    1    3    3    0  503 -0.65011574939E+02  0.38475314943E+02  0.44752800393E+03  0.45388353026E+03  0.47000000000E+01 0.  1.
<mgrwt>
<rscale>  0 0.12812782E+03</rscale>
<asrwt>0</asrwt>
<pdfrwt beam="1">  1        1 0.18901750E+00 0.13652786E+03</pdfrwt>
<pdfrwt beam="2">  1       -1 0.18543339E-02 0.13652786E+03</pdfrwt>
<totfact> 0.81420379E+03</totfact>
</mgrwt>
</event>
<event>
 8    1  0.3551276E-004  0.1296822E+03  0.7546771E-02  0.1242690E+00
          1   -1    0    0  501    0  0.00000000000E+00  0.00000000000E+00  0.69230971182E+03  0.69230971182E+03  0.00000000000E+00 0. -1.
         -1   -1    0    0    0  501 -0.00000000000E+00 -0.00000000000E+00 -0.25587105253E+02  0.25587105253E+02  0.00000000000E+00 0.  1.
         25    2    1    2    0    0  0.19513373742E+02 -0.28476354831E+02  0.18015878344E+03  0.22197899264E+03  0.12500324549E+03 0.  0.
         23    2    1    2    0    0 -0.19513373742E+02  0.28476354831E+02  0.48656382312E+03  0.49591782443E+03  0.89434110253E+02 0.  0.
          5    1    3    3  502    0 -0.45742930382E+02 -0.91143177139E+01  0.12733629290E+03  0.13569122285E+03  0.47000000000E+01 0.  1.
         -5    1    3    3    0  502  0.65256304124E+02 -0.19362037117E+02  0.52822490540E+02  0.86287769795E+02  0.47000000000E+01 0.  1.
          5    1    4    4  503    0 -0.14593145491E+02 -0.26018853584E+02  0.29780014353E+03  0.29932750646E+03  0.47000000000E+01 0. -1.
         -5    1    4    4    0  503 -0.49202282510E+01  0.54495208415E+02  0.18876367959E+03  0.19659031797E+03  0.47000000000E+01 0.  1.
<mgrwt>
<rscale>  0 0.12024738E+03</rscale>
<asrwt>0</asrwt>
<pdfrwt beam="1">  1        1 0.10650917E+00 0.12968225E+03</pdfrwt>
<pdfrwt beam="2">  1       -1 0.39364783E-02 0.12968225E+03</pdfrwt>
<totfact> 0.69368658E+03</totfact>
</mgrwt>
</event>
<event>
 8    1  0.3551276E-004  0.1408380E+03  0.7546771E-02  0.1224020E+00
         -2   -1    0    0    0  501 -0.00000000000E+00  0.00000000000E+00  0.11663403742E+03  0.11663403742E+03  0.00000000000E+00 0.  1.
          2   -1    0    0  501    0  0.00000000000E+00 -0.00000000000E+00 -0.13498254172E+03  0.13498254172E+03  0.00000000000E+00 0. -1.
         25    2    1    2    0    0 -0.18539835864E+02 -0.62182788716E+02 -0.16390981614E+02  0.14178858491E+03  0.12499965522E+03 0.  0.
         23    2    1    2    0    0  0.18539835864E+02  0.62182788716E+02 -0.19575226825E+01  0.10982799423E+03  0.88588552849E+02 0.  0.
          5    1    4    4  502    0  0.22642383906E+02 -0.10681519322E+02 -0.22370762755E+02  0.33901525485E+02  0.47000000000E+01 0. -1.
         -5    1    4    4    0  502 -0.41025480416E+01  0.72864308038E+02  0.20413240073E+02  0.75926468748E+02  0.47000000000E+01 0.  1.
          5    1    3    3  503    0 -0.34161995926E+02 -0.96555240287E+02 -0.80959650829E+01  0.10284741632E+03  0.47000000000E+01 0. -1.
         -5    1    3    3    0  503  0.15622160061E+02  0.34372451572E+02 -0.82950165314E+01  0.38941168592E+02  0.47000000000E+01 0. -1.
<mgrwt>
<rscale>  0 0.13234297E+03</rscale>
<asrwt>0</asrwt>
<pdfrwt beam="1">  1        2 0.20766545E-01 0.14083799E+03</pdfrwt>
<pdfrwt beam="2">  1       -2 0.17943698E-01 0.14083799E+03</pdfrwt>
<totfact> 0.64060770E+03</totfact>
</mgrwt>
</event>
<event>
 8    1  0.3551276E-004  0.1597862E+03  0.7546771E-02  0.1196771E+00
         -2   -1    0    0    0  501 -0.00000000000E+00  0.00000000000E+00  0.36079592295E+02  0.36079592295E+02  0.00000000000E+00 0.  1.
          2   -1    0    0  501    0  0.00000000000E+00 -0.00000000000E+00 -0.60338611333E+03  0.60338611333E+03  0.00000000000E+00 0. -1.
         25    2    1    2    0    0 -0.11441437089E+02  0.98878429244E+02 -0.33132035286E+03  0.36783802755E+03  0.12499515206E+03 0.  0.
         23    2    1    2    0    0  0.11441437089E+02 -0.98878429244E+02 -0.23598616818E+03  0.27162767808E+03  0.90466975609E+02 0.  0.
          5    1    3    3  502    0 -0.43077409398E+02 -0.11957984824E+01 -0.16910155343E+03  0.17456952342E+03  0.47000000000E+01 0.  1.
         -5    1    3    3    0  502  0.31635972310E+02  0.10007422773E+03 -0.16221879943E+03  0.19326850413E+03  0.47000000000E+01 0.  1.
          5    1    4    4  503    0  0.32741517034E+02 -0.46629713325E+02 -0.19082108301E+03  0.19920118680E+03  0.47000000000E+01 0. -1.
         -5    1    4    4    0  503 -0.21300079946E+02 -0.52248715919E+02 -0.45165085173E+02  0.72426491283E+02  0.47000000000E+01 0.  1.
<mgrwt>
<rscale>  0 0.15305260E+03</rscale>
<asrwt>0</asrwt>
<pdfrwt beam="1">  1        2 0.92828629E-01 0.15978623E+03</pdfrwt>
<pdfrwt beam="2">  1       -2 0.55507067E-02 0.15978623E+03</pdfrwt>
<totfact> 0.80958178E+03</totfact>
</mgrwt>
</event>
<event>
 8    1  0.3551276E-004  0.1481346E+03  0.7546771E-02  0.1212401E+00
         -4   -1    0    0    0  501 -0.00000000000E+00  0.00000000000E+00  0.25001762260E+03  0.25001762260E+03  0.00000000000E+00 0.  1.
          4   -1    0    0  501    0  0.00000000000E+00 -0.00000000000E+00 -0.73632729514E+02  0.73632729514E+02  0.00000000000E+00 0. -1.
         25    2    1    2    0    0  0.79415443060E+02  0.34161207370E+01  0.11970207845E+03  0.19045323794E+03  0.12500146312E+03 0.  0.
         23    2    1    2    0    0 -0.79415443060E+02 -0.34161207370E+01  0.56682814640E+02  0.13319711417E+03  0.90609311172E+02 0.  0.
          5    1    3    3  502    0  0.10306316890E+03  0.21525645649E+02  0.54574564852E+02  0.11868379558E+03  0.47000000000E+01 0.  1.
         -5    1    4    4    0  503 -0.69674447750E+02  0.36613304292E+02  0.33286660003E+02  0.85587116172E+02  0.47000000000E+01 0. -1.
          5    1    4    4  503    0 -0.97409953095E+01 -0.40029425029E+02  0.23396154637E+02  0.47609998000E+02  0.47000000000E+01 0.  1.
         -5    1    3    3    0  502 -0.23647725841E+02 -0.18109524912E+02  0.65127513594E+02  0.71769442362E+02  0.47000000000E+01 0.  1.
<mgrwt>
<rscale>  0 0.14069219E+03</rscale>
<asrwt>0</asrwt>
<pdfrwt beam="1">  1        4 0.11328112E-01 0.14813456E+03</pdfrwt>
<pdfrwt beam="2">  1       -4 0.38464249E-01 0.14813456E+03</pdfrwt>
<totfact> 0.67913681E+02</totfact>
</mgrwt>
</event>
<event>
 8    1  0.3551276E-004  0.2211781E+03  0.7546771E-02  0.1136542E+00
          3   -1    0    0  501    0  0.00000000000E+00  0.00000000000E+00  0.38761954577E+03  0.38761954577E+03  0.00000000000E+00 0. -1.
         -3   -1    0    0    0  501 -0.00000000000E+00 -0.00000000000E+00 -0.16662849758E+03  0.16662849758E+03  0.00000000000E+00 0.  1.
         25    2    1    2    0    0 -0.13762134513E+03  0.11981028136E+03 -0.38833188155E+02  0.22456123765E+03  0.12500237917E+03 0.  0.
         23    2    1    2    0    0  0.13762134513E+03 -0.11981028136E+03  0.25982423634E+03  0.32968680570E+03  0.88829150096E+02 0.  0.
          5    1    3    3  502    0 -0.15179082174E+03  0.90469133676E+02 -0.58519483239E+02  0.18620348448E+03  0.47000000000E+01 0.  1.
         -5    1    4    4    0  503  0.48407006625E+02 -0.53727881356E+02  0.17648581156E+03  0.19078588839E+03  0.47000000000E+01 0.  1.
          5    1    4    4  503    0  0.89214338509E+02 -0.66082400003E+02  0.83338424782E+02  0.13890091731E+03  0.47000000000E+01 0. -1.
         -5    1    3    3    0  502  0.14169476606E+02  0.29341147683E+02  0.19686295085E+02  0.38357753177E+02  0.47000000000E+01 0.  1.
<mgrwt>
<rscale>  0 0.21647044E+03</rscale>
<asrwt>0</asrwt>
<pdfrwt beam="1">  1        3 0.59633776E-01 0.22117806E+03</pdfrwt>
<pdfrwt beam="2">  1       -3 0.25635154E-01 0.22117806E+03</pdfrwt>
<totfact> 0.98635274E+01</totfact>
</mgrwt>
</event>
<event>
 8    1  0.3551276E-004  0.1352007E+03  0.7546771E-02  0.1232253E+00
         -2   -1    0    0    0  501 -0.00000000000E+00  0.00000000000E+00  0.21329317490E+02  0.21329317490E+02  0.00000000000E+00 0.  1.
          2   -1    0    0  501    0  0.00000000000E+00 -0.00000000000E+00 -0.73893364663E+03  0.73893364663E+03  0.00000000000E+00 0. -1.
         25    2    1    2    0    0 -0.48120808052E+02 -0.18395983807E+02 -0.51200740277E+03  0.52955718469E+03  0.12500082790E+03 0.  0.
         23    2    1    2    0    0  0.48120808052E+02  0.18395983807E+02 -0.20559692636E+03  0.23070577943E+03  0.91110022186E+02 0.  0.
          5    1    3    3  502    0 -0.10140025334E+01 -0.65045312032E+02 -0.31369876501E+03  0.32040743747E+03  0.47000000000E+01 0.  1.
         -5    1    3    3    0  502 -0.47106805519E+02  0.46649328224E+02 -0.19830863776E+03  0.20914974721E+03  0.47000000000E+01 0.  1.
          5    1    4    4  503    0  0.63949050950E+02 -0.12741210723E+02 -0.16166962770E+03  0.17438743672E+03  0.47000000000E+01 0. -1.
         -5    1    4    4    0  503 -0.15828242898E+02  0.31137194530E+02 -0.43927298668E+02  0.56318342702E+02  0.47000000000E+01 0.  1.
<mgrwt>
<rscale>  0 0.12681951E+03</rscale>
<asrwt>0</asrwt>
<pdfrwt beam="1">  1        2 0.11368210E+00 0.13520071E+03</pdfrwt>
<pdfrwt beam="2">  1       -2 0.32814334E-02 0.13520071E+03</pdfrwt>
<totfact> 0.13842255E+04</totfact>
</mgrwt>
</event>
<event>
 8    1  0.3551276E-004  0.2042166E+03  0.7546771E-02  0.1148956E+00
          2   -1    0    0  501    0  0.00000000000E+00  0.00000000000E+00  0.58191529260E+03  0.58191529260E+03  0.00000000000E+00 0. -1.
         -2   -1    0    0    0  501 -0.00000000000E+00 -0.00000000000E+00 -0.80275321827E+02  0.80275321827E+02  0.00000000000E+00 0.  1.
         25    2    1    2    0    0 -0.15381407856E+03 -0.49205503833E+02  0.39101657032E+03  0.44113304293E+03  0.12499780368E+03 0.  0.
         23    2    1    2    0    0  0.15381407856E+03  0.49205503833E+02  0.11062340045E+03  0.22105757150E+03  0.10270813414E+03 0.  0.
          5    1    4    4  502    0  0.18782821421E+02  0.52028806493E+02  0.41154358447E+02  0.69105443381E+02  0.47000000000E+01 0. -1.
         -5    1    3    3    0  503 -0.78238795630E+02 -0.63786573808E+02  0.32255684436E+03  0.33801633686E+03  0.47000000000E+01 0. -1.
          5    1    3    3  503    0 -0.75575282932E+02  0.14581069975E+02  0.68459725965E+02  0.10311670607E+03  0.47000000000E+01 0. -1.
         -5    1    4    4    0  502  0.13503125714E+03 -0.28233026604E+01  0.69469042005E+02  0.15195212812E+03  0.47000000000E+01 0.  1.
<mgrwt>
<rscale>  0 0.20093066E+03</rscale>
<asrwt>0</asrwt>
<pdfrwt beam="1">  1        2 0.89525427E-01 0.20421656E+03</pdfrwt>
<pdfrwt beam="2">  1       -2 0.12350050E-01 0.20421656E+03</pdfrwt>
<totfact> 0.24454154E+03</totfact>
</mgrwt>
</event>
<event>
 8    1  0.3551276E-004  0.4121519E+03  0.7546771E-02  0.1040441E+00
         -2   -1    0    0    0  501 -0.00000000000E+00  0.00000000000E+00  0.72531144676E+02  0.72531144676E+02  0.00000000000E+00 0.  1.
          2   -1    0    0  501    0  0.00000000000E+00 -0.00000000000E+00 -0.24027981002E+04  0.24027981002E+04  0.00000000000E+00 0. -1.
         25    2    1    2    0    0 -0.39188992467E+03  0.25814930672E+02 -0.14470206869E+04  0.15045723796E+04  0.12500021397E+03 0.  0.
         23    2    1    2    0    0  0.39188992467E+03 -0.25814930672E+02 -0.88324626862E+03  0.97075686526E+03  0.89447172706E+02 0.  0.
          5    1    4    4  502    0  0.10086734458E+03 -0.46135329818E+02 -0.24034374319E+03  0.26474496171E+03  0.47000000000E+01 0. -1.
         -5    1    3    3    0  503 -0.10241711817E+03 -0.47523527740E+01 -0.60504966711E+03  0.61369295304E+03  0.47000000000E+01 0.  1.
          5    1    3    3  503    0 -0.28947280650E+03  0.30567283446E+02 -0.84197101979E+03  0.89087942657E+03  0.47000000000E+01 0.  1.
         -5    1    4    4    0  502  0.29102258009E+03  0.20320399146E+02 -0.64290252543E+03  0.70601190355E+03  0.47000000000E+01 0.  1.
<mgrwt>
<rscale>  0 0.40979283E+03</rscale>
<asrwt>0</asrwt>
<pdfrwt beam="1">  1        2 0.36966125E+00 0.41215189E+03</pdfrwt>
<pdfrwt beam="2">  1       -2 0.11158638E-01 0.41215189E+03</pdfrwt>
<totfact> 0.24536706E+02</totfact>
</mgrwt>
</event>
<event>
 8    1  0.3551276E-004  0.1563346E+03  0.7546771E-02  0.1200564E+00
          2   -1    0    0  501    0  0.00000000000E+00  0.00000000000E+00  0.15011650225E+03  0.15011650225E+03  0.00000000000E+00 0. -1.
         -2   -1    0    0    0  501 -0.00000000000E+00 -0.00000000000E+00 -0.16092794024E+03  0.16092794024E+03  0.00000000000E+00 0.  1.
         25    2    1    2    0    0  0.90412259168E+02 -0.25276656045E+02 -0.63449151366E+02  0.16871955944E+03  0.12500883561E+03 0.  0.
         23    2    1    2    0    0 -0.90412259168E+02  0.25276656045E+02  0.52637713380E+02  0.14232488304E+03  0.93125493363E+02 0.  0.
          5    1    3    3  502    0  0.10761156697E+02  0.32502417414E+02  0.19723835421E+02  0.39791070794E+02  0.47000000000E+01 0.  1.
         -5    1    4    4    0  503 -0.42610634250E+02 -0.34866579224E+02  0.22664467764E+02  0.59725309518E+02  0.47000000000E+01 0.  1.
          5    1    4    4  503    0 -0.47801624918E+02  0.60143235270E+02  0.29973245615E+02  0.82599573523E+02  0.47000000000E+01 0. -1.
         -5    1    3    3    0  502  0.79651102471E+02 -0.57779073459E+02 -0.83172986787E+02  0.12892848865E+03  0.47000000000E+01 0.  1.
<mgrwt>
<rscale>  0 0.14992583E+03</rscale>
<asrwt>0</asrwt>
<pdfrwt beam="1">  1        2 0.23094847E-01 0.15633456E+03</pdfrwt>
<pdfrwt beam="2">  1       -2 0.24758145E-01 0.15633456E+03</pdfrwt>
<totfact> 0.33015821E+03</totfact>
</mgrwt>
</event>
<event>
 8    1  0.3551276E-004  0.2069240E+03  0.7546771E-02  0.1147884E+00
          2   -1    0    0  501    0  0.00000000000E+00  0.00000000000E+00  0.31712169281E+03  0.31712169281E+03  0.00000000000E+00 0. -1.
         -2   -1    0    0    0  501 -0.00000000000E+00 -0.00000000000E+00 -0.12340121036E+03  0.12340121036E+03  0.00000000000E+00 0.  1.
         25    2    1    2    0    0 -0.16375115745E+03 -0.19436454978E+02  0.10127710888E+03  0.23037923838E+03  0.12500129337E+03 0.  0.
         23    2    1    2    0    0  0.16375115745E+03  0.19436454978E+02  0.92443373575E+02  0.21014366479E+03  0.91773444882E+02 0.  0.
          5    1    4    4  502    0  0.19527880815E+02  0.35680029676E+02  0.35413164470E+02  0.54134876601E+02  0.47000000000E+01 0. -1.
         -5    1    3    3    0  503 -0.26389116165E+02  0.43730658005E+02  0.47305856882E+02  0.69775998716E+02  0.47000000000E+01 0. -1.
          5    1    3    3  503    0 -0.13736204128E+03 -0.63167112983E+02  0.53971251996E+02  0.16060323966E+03  0.47000000000E+01 0. -1.
         -5    1    4    4    0  502  0.14422327663E+03 -0.16243574698E+02  0.57030209105E+02  0.15600878819E+03  0.47000000000E+01 0.  1.
<mgrwt>
<rscale>  0 0.20221419E+03</rscale>
<asrwt>0</asrwt>
<pdfrwt beam="1">  1        2 0.48787952E-01 0.20692400E+03</pdfrwt>
<pdfrwt beam="2">  1       -2 0.18984802E-01 0.20692400E+03</pdfrwt>
<totfact> 0.23398829E+03</totfact>
</mgrwt>
</event>
<event>
 8    1  0.3551276E-004  0.1820969E+03  0.7546771E-02  0.1169635E+00
         -2   -1    0    0    0  501 -0.00000000000E+00  0.00000000000E+00  0.50770036404E+02  0.50770036404E+02  0.00000000000E+00 0.  1.
          2   -1    0    0  501    0  0.00000000000E+00 -0.00000000000E+00 -0.97964856563E+03  0.97964856563E+03  0.00000000000E+00 0. -1.
         25    2    1    2    0    0 -0.50722048753E+02 -0.12231985471E+03 -0.15604775378E+03  0.23981282566E+03  0.12499766720E+03 0.  0.
         23    2    1    2    0    0  0.50722048753E+02  0.12231985471E+03 -0.77283077545E+03  0.79060577637E+03  0.10126802588E+03 0.  0.
          5    1    3    3  502    0  0.21052430685E+02 -0.10504877411E+03 -0.10380908003E+03  0.14925436301E+03  0.47000000000E+01 0. -1.
         -5    1    3    3    0  502 -0.71774479438E+02 -0.17271080604E+02 -0.52238673742E+02  0.90558462654E+02  0.47000000000E+01 0. -1.
          5    1    4    4  503    0 -0.13092862703E+02  0.60961353198E+02 -0.49601189654E+03  0.49993759725E+03  0.47000000000E+01 0. -1.
         -5    1    4    4    0  503  0.63814911456E+02  0.61358501514E+02 -0.27681887891E+03  0.29066817912E+03  0.47000000000E+01 0.  1.
<mgrwt>
<rscale>  0 0.17812021E+03</rscale>
<asrwt>0</asrwt>
<pdfrwt beam="1">  1        2 0.15071516E+00 0.18209692E+03</pdfrwt>
<pdfrwt beam="2">  1       -2 0.78107751E-02 0.18209692E+03</pdfrwt>
<totfact> 0.26346081E+03</totfact>
</mgrwt>
</event>
<event>
 8    1  0.3551276E-004  0.1393596E+03  0.7546771E-02  0.1225535E+00
          2   -1    0    0  501    0  0.00000000000E+00  0.00000000000E+00  0.21332773599E+03  0.21332773599E+03  0.00000000000E+00 0. -1.
         -2   -1    0    0    0  501 -0.00000000000E+00 -0.00000000000E+00 -0.10214875378E+03  0.10214875378E+03  0.00000000000E+00 0.  1.
         25    2    1    2    0    0 -0.60197710884E+02  0.13105864974E+02  0.14446061486E+03  0.20072363806E+03  0.12500232613E+03 0.  0.
         23    2    1    2    0    0  0.60197710884E+02 -0.13105864974E+02 -0.33281632653E+02  0.11475285170E+03  0.90912165356E+02 0.  0.
          5    1    4    4  502    0  0.51714901338E+02  0.33376962214E+02 -0.24762046595E+02  0.66510913229E+02  0.47000000000E+01 0.  1.
         -5    1    4    4    0  502  0.84828095460E+01 -0.46482827188E+02 -0.85195860576E+01  0.48241938475E+02  0.47000000000E+01 0. -1.
          5    1    3    3  503    0  0.17868584116E+02 -0.30263484346E+02  0.88225243719E+02  0.95083901963E+02  0.47000000000E+01 0. -1.
         -5    1    3    3    0  503 -0.78066295000E+02  0.43369349321E+02  0.56235371140E+02  0.10563973610E+03  0.47000000000E+01 0. -1.
<mgrwt>
<rscale>  0 0.13130270E+03</rscale>
<asrwt>0</asrwt>
<pdfrwt beam="1">  1        2 0.32819652E-01 0.13935964E+03</pdfrwt>
<pdfrwt beam="2">  1       -2 0.15715193E-01 0.13935964E+03</pdfrwt>
<totfact> 0.48204400E+03</totfact>
</mgrwt>
</event>
<event>
 8    1  0.3551276E-004  0.1318739E+03  0.7546771E-02  0.1237547E+00
         -2   -1    0    0    0  501 -0.00000000000E+00  0.00000000000E+00  0.94122166226E+02  0.94122166226E+02  0.00000000000E+00 0.  1.
          2   -1    0    0  501    0  0.00000000000E+00 -0.00000000000E+00 -0.15196395102E+03  0.15196395102E+03  0.00000000000E+00 0. -1.
         25    2    1    2    0    0 -0.30187092778E+02  0.29233691089E+02 -0.59961597930E+02  0.14486584897E+03  0.12499940682E+03 0.  0.
         23    2    1    2    0    0  0.30187092778E+02 -0.29233691089E+02  0.21198131339E+01  0.10122026828E+03  0.92060739934E+02 0.  0.
          5    1    3    3  502    0 -0.18792619916E+02 -0.11424940709E+02  0.34560960664E+02  0.41233988838E+02  0.47000000000E+01 0.  1.
         -5    1    4    4    0  503 -0.16217605251E+02 -0.48028319631E+02  0.13620132612E+01  0.50928138457E+02  0.47000000000E+01 0. -1.
          5    1    4    4  503    0  0.46404698028E+02  0.18794628542E+02  0.75779987268E+00  0.50292129820E+02  0.47000000000E+01 0. -1.
         -5    1    3    3    0  502 -0.11394472862E+02  0.40658631798E+02 -0.94522558593E+02  0.10363186013E+03  0.47000000000E+01 0.  1.
<mgrwt>
<rscale>  0 0.12342756E+03</rscale>
<asrwt>0</asrwt>
<pdfrwt beam="1">  1        2 0.23379069E-01 0.13187388E+03</pdfrwt>
<pdfrwt beam="2">  1       -2 0.14480334E-01 0.13187388E+03</pdfrwt>
<totfact> 0.79517099E+03</totfact>
</mgrwt>
</event>
<event>
 8    1  0.3551276E-004  0.1718421E+03  0.7546771E-02  0.1181688E+00
          2   -1    0    0  501    0  0.00000000000E+00  0.00000000000E+00  0.91575087245E+03  0.91575087245E+03  0.00000000000E+00 0. -1.
         -2   -1    0    0    0  501 -0.00000000000E+00 -0.00000000000E+00 -0.34578637528E+02  0.34578637528E+02  0.00000000000E+00 0.  1.
         25    2    1    2    0    0 -0.55262396976E+02 -0.10416826205E+03  0.26431168018E+03  0.31526238199E+03  0.12499898352E+03 0.  0.
         23    2    1    2    0    0  0.55262396976E+02  0.10416826205E+03  0.61686055474E+03  0.63506712799E+03  0.94278065926E+02 0.  0.
          5    1    3    3  502    0  0.37522461452E+02 -0.53490013687E+02  0.11300755341E+03  0.13062126092E+03  0.47000000000E+01 0.  1.
         -5    1    4    4    0  503  0.39852340482E+02  0.25812033893E+02  0.87204234093E+02  0.99403916318E+02  0.47000000000E+01 0.  1.
          5    1    4    4  503    0  0.15410056494E+02  0.78356228158E+02  0.52965632065E+03  0.53566321167E+03  0.47000000000E+01 0. -1.
         -5    1    3    3    0  502 -0.92784858428E+02 -0.50678248364E+02  0.15130412677E+03  0.18464112107E+03  0.47000000000E+01 0.  1.
<mgrwt>
<rscale>  0 0.16636927E+03</rscale>
<asrwt>0</asrwt>
<pdfrwt beam="1">  1        2 0.14088473E+00 0.17184209E+03</pdfrwt>
<pdfrwt beam="2">  1       -2 0.53197911E-02 0.17184209E+03</pdfrwt>
<totfact> 0.51928585E+03</totfact>
</mgrwt>
</event>
<event>
 8    1  0.3551276E-004  0.3636293E+03  0.7546771E-02  0.1058239E+00
          2   -1    0    0  501    0  0.00000000000E+00  0.00000000000E+00  0.17818955882E+04  0.17818955882E+04  0.00000000000E+00 0. -1.
         -2   -1    0    0    0  501 -0.00000000000E+00 -0.00000000000E+00 -0.73956973052E+02  0.73956973052E+02  0.00000000000E+00 0.  1.
         25    2    1    2    0    0 -0.31650796241E+03 -0.12815535712E+03  0.10176549965E+04  0.10806701472E+04  0.12500075736E+03 0.  0.
         23    2    1    2    0    0  0.31650796241E+03  0.12815535712E+03  0.69028361860E+03  0.77518241399E+03  0.88403704827E+02 0.  0.
          5    1    4    4  502    0  0.98747404896E+02  0.20686342269E+02  0.28876298324E+03  0.30591685998E+03  0.47000000000E+01 0. -1.
         -5    1    4    4    0  502  0.21776055752E+03  0.10746901485E+03  0.40152063535E+03  0.46926555401E+03  0.47000000000E+01 0.  1.
          5    1    3    3  503    0 -0.11617537391E+03 -0.10075031342E+03  0.55089885401E+03  0.57197812940E+03  0.47000000000E+01 0.  1.
         -5    1    3    3    0  503 -0.20033258850E+03 -0.27405043697E+02  0.46675614249E+03  0.50869201781E+03  0.47000000000E+01 0.  1.
<mgrwt>
<rscale>  0 0.36087253E+03</rscale>
<asrwt>0</asrwt>
<pdfrwt beam="1">  1        2 0.27413775E+00 0.36362931E+03</pdfrwt>
<pdfrwt beam="2">  1       -2 0.11377997E-01 0.36362931E+03</pdfrwt>
<totfact> 0.51626878E+02</totfact>
</mgrwt>
</event>
<event>
 8    1  0.3551276E-004  0.1253299E+03  0.7546771E-02  0.1250487E+00
          1   -1    0    0  501    0  0.00000000000E+00  0.00000000000E+00  0.42779228575E+03  0.42779228575E+03  0.00000000000E+00 0. -1.
         -1   -1    0    0    0  501 -0.00000000000E+00 -0.00000000000E+00 -0.30569564647E+02  0.30569564647E+02  0.00000000000E+00 0.  1.
         25    2    1    2    0    0  0.91093998676E+01  0.24650032232E+00  0.30104503913E+03  0.32609154042E+03  0.12499814086E+03 0.  0.
         23    2    1    2    0    0 -0.91093998676E+01 -0.24650032232E+00  0.96177681971E+02  0.13227030998E+03  0.90345151859E+02 0.  0.
          5    1    3    3  502    0  0.32683247818E+02 -0.52844351005E+02  0.19956970134E+03  0.20907146102E+03  0.47000000000E+01 0.  1.
         -5    1    4    4    0  503 -0.18004283461E+02 -0.23748792772E+02 -0.25580477218E+01  0.30278589617E+02  0.47000000000E+01 0.  1.
          5    1    4    4  503    0  0.88948835934E+01  0.23502292449E+02  0.98735729693E+02  0.10199172036E+03  0.47000000000E+01 0. -1.
         -5    1    3    3    0  502 -0.23573847950E+02  0.53090851327E+02  0.10147533779E+03  0.11702007940E+03  0.47000000000E+01 0.  1.
<mgrwt>
<rscale>  0 0.11562898E+03</rscale>
<asrwt>0</asrwt>
<pdfrwt beam="1">  1        1 0.65814194E-01 0.12532987E+03</pdfrwt>
<pdfrwt beam="2">  1       -1 0.47030102E-02 0.12532987E+03</pdfrwt>
<totfact> 0.10115204E+04</totfact>
</mgrwt>
</event>
<event>
 8    1  0.3551276E-004  0.1514127E+03  0.7546771E-02  0.1207902E+00
         -2   -1    0    0    0  501 -0.00000000000E+00  0.00000000000E+00  0.14971244435E+03  0.14971244435E+03  0.00000000000E+00 0.  1.
          2   -1    0    0  501    0  0.00000000000E+00 -0.00000000000E+00 -0.13060638244E+03  0.13060638244E+03  0.00000000000E+00 0. -1.
         25    2    1    2    0    0  0.85363750754E+02  0.37621957631E+01 -0.13050856161E+02  0.15197407786E+03  0.12499868574E+03 0.  0.
         23    2    1    2    0    0 -0.85363750754E+02 -0.37621957631E+01  0.32156918069E+02  0.12834474893E+03  0.90206336465E+02 0.  0.
          5    1    3    3  502    0  0.44440521024E+02 -0.45011894584E+02 -0.47675482101E+02  0.79347792386E+02  0.47000000000E+01 0.  1.
         -5    1    3    3    0  502  0.40923229730E+02  0.48774090347E+02  0.34624625940E+02  0.72626285477E+02  0.47000000000E+01 0.  1.
          5    1    4    4  503    0 -0.24795746120E+02  0.34146339764E+02 -0.12117073671E+02  0.44155577442E+02  0.47000000000E+01 0. -1.
         -5    1    4    4    0  503 -0.60568004634E+02 -0.37908535527E+02  0.44273991740E+02  0.84189171488E+02  0.47000000000E+01 0.  1.
<mgrwt>
<rscale>  0 0.14411083E+03</rscale>
<asrwt>0</asrwt>
<pdfrwt beam="1">  1        2 0.20093290E-01 0.15141267E+03</pdfrwt>
<pdfrwt beam="2">  1       -2 0.23032684E-01 0.15141267E+03</pdfrwt>
<totfact> 0.43706268E+03</totfact>
</mgrwt>
</event>
<event>
 8    1  0.3551276E-004  0.1433807E+03  0.7546771E-02  0.1218877E+00
         -1   -1    0    0    0  501 -0.00000000000E+00  0.00000000000E+00  0.12134912536E+02  0.12134912536E+02  0.00000000000E+00 0.  1.
          1   -1    0    0  501    0  0.00000000000E+00 -0.00000000000E+00 -0.13855147463E+04  0.13855147463E+04  0.00000000000E+00 0. -1.
         25    2    1    2    0    0 -0.67552942757E+02  0.19213556014E+02 -0.77194019775E+03  0.78514310781E+03  0.12500188015E+03 0.  0.
         23    2    1    2    0    0  0.67552942757E+02 -0.19213556014E+02 -0.60143963603E+03  0.61250655104E+03  0.92206715928E+02 0.  0.
          5    1    4    4  502    0  0.33194229922E+02  0.20555035193E+02 -0.88297517996E+02  0.96658719504E+02  0.47000000000E+01 0. -1.
         -5    1    4    4    0  502  0.34358712835E+02 -0.39768591206E+02 -0.51314211804E+03  0.51584783153E+03  0.47000000000E+01 0.  1.
          5    1    3    3  503    0  0.18580748475E+01  0.58986665570E+02 -0.23964971239E+03  0.24685411442E+03  0.47000000000E+01 0.  1.
         -5    1    3    3    0  503 -0.69411017604E+02 -0.39773109557E+02 -0.53229048536E+03  0.53828899340E+03  0.47000000000E+01 0.  1.
<mgrwt>
<rscale>  0 0.13595536E+03</rscale>
<asrwt>0</asrwt>
<pdfrwt beam="1">  1        1 0.21315611E+00 0.14338072E+03</pdfrwt>
<pdfrwt beam="2">  1       -1 0.18669097E-02 0.14338072E+03</pdfrwt>
<totfact> 0.63460087E+03</totfact>
</mgrwt>
</event>
<event>
 8    1  0.3551276E-004  0.1300677E+03  0.7546771E-02  0.1241283E+00
          2   -1    0    0  501    0  0.00000000000E+00  0.00000000000E+00  0.89699906018E+03  0.89699906018E+03  0.00000000000E+00 0. -1.
         -2   -1    0    0    0  501 -0.00000000000E+00 -0.00000000000E+00 -0.16089607488E+02  0.16089607488E+02  0.00000000000E+00 0.  1.
         25    2    1    2    0    0  0.19547082227E+02  0.30174573891E+02  0.35291583402E+03  0.37612125300E+03  0.12500007090E+03 0.  0.
         23    2    1    2    0    0 -0.19547082227E+02 -0.30174573891E+02  0.52799361867E+03  0.53696741467E+03  0.90907368903E+02 0.  0.
          5    1    4    4  502    0 -0.53339813293E+02 -0.13177733485E+02  0.38712711746E+03  0.39103488772E+03  0.47000000000E+01 0. -1.
         -5    1    4    4    0  502  0.33792731066E+02 -0.16996840406E+02  0.14086650122E+03  0.14593252695E+03  0.47000000000E+01 0.  1.
          5    1    3    3  503    0  0.37362577457E+02 -0.25608557054E+02  0.50285571395E+02  0.67841647084E+02  0.47000000000E+01 0.  1.
         -5    1    3    3    0  503 -0.17815495230E+02  0.55783130945E+02  0.30263026262E+03  0.30827960591E+03  0.47000000000E+01 0.  1.
<mgrwt>
<rscale>  0 0.12110606E+03</rscale>
<asrwt>0</asrwt>
<pdfrwt beam="1">  1        2 0.13799982E+00 0.13006772E+03</pdfrwt>
<pdfrwt beam="2">  1       -2 0.24753249E-02 0.13006772E+03</pdfrwt>
<totfact> 0.16372286E+04</totfact>
</mgrwt>
</event>
<event>
 8    1  0.3551276E-004  0.1698569E+03  0.7546771E-02  0.1184390E+00
         -2   -1    0    0    0  501 -0.00000000000E+00  0.00000000000E+00  0.71914819902E+02  0.71914819902E+02  0.00000000000E+00 0.  1.
          2   -1    0    0  501    0  0.00000000000E+00 -0.00000000000E+00 -0.42476361261E+03  0.42476361261E+03  0.00000000000E+00 0. -1.
         25    2    1    2    0    0  0.77916795158E+01 -0.11473886639E+03 -0.82412872629E+02  0.18879423317E+03  0.12500265267E+03 0.  0.
         23    2    1    2    0    0 -0.77916795158E+01  0.11473886639E+03 -0.27043592008E+03  0.30788419934E+03  0.91822522299E+02 0.  0.
          5    1    3    3  502    0 -0.48985834394E+02 -0.73416426516E+02 -0.78654696417E+02  0.11831413661E+03  0.47000000000E+01 0. -1.
         -5    1    4    4    0  503 -0.42246318404E+02  0.10127873006E+03 -0.19880397909E+03  0.22712825602E+03  0.47000000000E+01 0.  1.
          5    1    4    4  503    0  0.34454638889E+02  0.13460136336E+02 -0.71631940983E+02  0.80755943312E+02  0.47000000000E+01 0. -1.
         -5    1    3    3    0  502  0.56777513910E+02 -0.41322439876E+02 -0.37581762119E+01  0.70480096563E+02  0.47000000000E+01 0. -1.
<mgrwt>
<rscale>  0 0.16387492E+03</rscale>
<asrwt>0</asrwt>
<pdfrwt beam="1">  1        2 0.65348249E-01 0.16985694E+03</pdfrwt>
<pdfrwt beam="2">  1       -2 0.11063818E-01 0.16985694E+03</pdfrwt>
<totfact> 0.41134520E+03</totfact>
</mgrwt>
</event>
<event>
 8    1  0.3551276E-004  0.1558060E+03  0.7546771E-02  0.1201904E+00
         -2   -1    0    0    0  501 -0.00000000000E+00  0.00000000000E+00  0.46951610249E+02  0.46951610249E+02  0.00000000000E+00 0.  1.
          2   -1    0    0  501    0  0.00000000000E+00 -0.00000000000E+00 -0.61581540086E+03  0.61581540086E+03  0.00000000000E+00 0. -1.
         25    2    1    2    0    0 -0.35062615085E+02 -0.86150214235E+02 -0.12329622336E+03  0.19868934635E+03  0.12499700504E+03 0.  0.
         23    2    1    2    0    0  0.35062615085E+02  0.86150214235E+02 -0.44556756726E+03  0.46407766477E+03  0.90478591680E+02 0.  0.
          5    1    3    3  502    0 -0.64337946577E+02 -0.79903240569E+02 -0.13192540224E+03  0.16718343512E+03  0.47000000000E+01 0. -1.
         -5    1    3    3    0  502  0.29275331493E+02 -0.62469736665E+01  0.86291788816E+01  0.31505911226E+02  0.47000000000E+01 0. -1.
          5    1    4    4  503    0  0.57877948728E+02  0.84389177224E+02 -0.39951610310E+03  0.41243980993E+03  0.47000000000E+01 0. -1.
         -5    1    4    4    0  503 -0.22815333643E+02  0.17610370117E+01 -0.46051464164E+02  0.51637854838E+02  0.47000000000E+01 0.  1.
<mgrwt>
<rscale>  0 0.14884119E+03</rscale>
<asrwt>0</asrwt>
<pdfrwt beam="1">  1        2 0.94740830E-01 0.15580596E+03</pdfrwt>
<pdfrwt beam="2">  1       -2 0.72233247E-02 0.15580596E+03</pdfrwt>
<totfact> 0.52825502E+03</totfact>
</mgrwt>
</event>
<event>
 8    1  0.3551276E-004  0.2211345E+03  0.7546771E-02  0.1136372E+00
         -2   -1    0    0    0  501 -0.00000000000E+00  0.00000000000E+00  0.24432529836E+02  0.24432529836E+02  0.00000000000E+00 0. -1.
          2   -1    0    0  501    0  0.00000000000E+00 -0.00000000000E+00 -0.19520985432E+04  0.19520985432E+04  0.00000000000E+00 0.  1.
         25    2    1    2    0    0 -0.17536985437E+03 -0.50197735801E+02 -0.77334927654E+03  0.80434419682E+03  0.12500433963E+03 0.  0.
         23    2    1    2    0    0  0.17536985437E+03  0.50197735801E+02 -0.11543167369E+04  0.11721868763E+04  0.91107328838E+02 0.  0.
          5    1    4    4  502    0  0.56564384941E+02  0.37927089717E+02 -0.22254518450E+03  0.23277981640E+03  0.47000000000E+01 0. -1.
         -5    1    4    4    0  502  0.11880546943E+03  0.12270646084E+02 -0.93177155237E+03  0.93940705987E+03  0.47000000000E+01 0.  1.
          5    1    3    3  503    0 -0.78699520869E+02 -0.86256417829E+02 -0.37231178847E+03  0.39022037624E+03  0.47000000000E+01 0.  1.
         -5    1    3    3    0  503 -0.96670333502E+02  0.36058682028E+02 -0.40103748807E+03  0.41412382058E+03  0.47000000000E+01 0.  1.
<mgrwt>
<rscale>  0 0.21669375E+03</rscale>
<asrwt>0</asrwt>
<pdfrwt beam="1">  1        2 0.30032299E+00 0.22113454E+03</pdfrwt>
<pdfrwt beam="2">  1       -2 0.37588491E-02 0.22113454E+03</pdfrwt>
<totfact> 0.23811457E+03</totfact>
</mgrwt>
</event>
<event>
 8    1  0.3551276E-004  0.2230998E+03  0.7546771E-02  0.1134766E+00
          1   -1    0    0  501    0  0.00000000000E+00  0.00000000000E+00  0.47907681208E+03  0.47907681208E+03  0.00000000000E+00 0. -1.
         -1   -1    0    0    0  501 -0.00000000000E+00 -0.00000000000E+00 -0.11985678806E+03  0.11985678806E+03  0.00000000000E+00 0.  1.
         25    2    1    2    0    0 -0.16643618074E+03 -0.80299151504E+02  0.31789978907E+03  0.38837326164E+03  0.12499823388E+03 0.  0.
         23    2    1    2    0    0  0.16643618074E+03  0.80299151504E+02  0.41320234945E+02  0.21056033850E+03  0.92083322822E+02 0.  0.
          5    1    4    4  502    0  0.56709041841E+02  0.42748324536E+02  0.59886320920E+02  0.93015031638E+02  0.47000000000E+01 0. -1.
         -5    1    4    4    0  502  0.10972713890E+03  0.37550826967E+02 -0.18566085975E+02  0.11754530687E+03  0.47000000000E+01 0.  1.
          5    1    3    3  503    0 -0.11196240158E+03 -0.78013024611E+02  0.30192639427E+03  0.33136573289E+03  0.47000000000E+01 0.  1.
         -5    1    3    3    0  503 -0.54473779168E+02 -0.22861268926E+01  0.15973394800E+02  0.57007528753E+02  0.47000000000E+01 0.  1.
<mgrwt>
<rscale>  0 0.21881980E+03</rscale>
<asrwt>0</asrwt>
<pdfrwt beam="1">  1        1 0.73704124E-01 0.22309979E+03</pdfrwt>
<pdfrwt beam="2">  1       -1 0.18439506E-01 0.22309979E+03</pdfrwt>
<totfact> 0.11010584E+03</totfact>
</mgrwt>
</event>
<event>
 8    1  0.3551276E-004  0.1265801E+03  0.7546771E-02  0.1251264E+00
         -1   -1    0    0    0  501 -0.00000000000E+00  0.00000000000E+00  0.48049482455E+02  0.48049482455E+02  0.00000000000E+00 0.  1.
          1   -1    0    0  501    0  0.00000000000E+00 -0.00000000000E+00 -0.25510663303E+03  0.25510663303E+03  0.00000000000E+00 0. -1.
         25    2    1    2    0    0 -0.15376295057E+02 -0.12719741721E+02 -0.81581366345E+02  0.15059232819E+03  0.12499723075E+03 0.  0.
         23    2    1    2    0    0  0.15376295057E+02  0.12719741721E+02 -0.12547578423E+03  0.15256378729E+03  0.84458951486E+02 0.  0.
          5    1    4    4  502    0 -0.20175611708E+02 -0.22605727605E+02 -0.76131836083E+02  0.82074482598E+02  0.47000000000E+01 0. -1.
         -5    1    4    4    0  502  0.35551906764E+02  0.35325469326E+02 -0.49343948144E+02  0.70489304693E+02  0.47000000000E+01 0.  1.
          5    1    3    3  503    0 -0.25269882127E+02 -0.63780491755E+02 -0.67830832471E+02  0.96590009343E+02  0.47000000000E+01 0.  1.
         -5    1    3    3    0  503  0.98935870700E+01  0.51060750034E+02 -0.13750533874E+02  0.54002318848E+02  0.47000000000E+01 0.  1.
<mgrwt>
<rscale>  0 0.11518200E+03</rscale>
<asrwt>0</asrwt>
<pdfrwt beam="1">  1        1 0.39247174E-01 0.12658013E+03</pdfrwt>
<pdfrwt beam="2">  1       -1 0.73922281E-02 0.12658013E+03</pdfrwt>
<totfact> 0.98295968E+03</totfact>
</mgrwt>
</event>
<event>
 8    1  0.3551276E-004  0.1437672E+03  0.7546771E-02  0.1219436E+00
          1   -1    0    0  501    0  0.00000000000E+00  0.00000000000E+00  0.55918911485E+03  0.55918911485E+03  0.00000000000E+00 0. -1.
         -1   -1    0    0    0  501 -0.00000000000E+00 -0.00000000000E+00 -0.30447332700E+02  0.30447332700E+02  0.00000000000E+00 0.  1.
         25    2    1    2    0    0 -0.68644426066E+02 -0.18219629007E+02  0.34272660368E+03  0.37165915403E+03  0.12499995917E+03 0.  0.
         23    2    1    2    0    0  0.68644426066E+02  0.18219629007E+02  0.18601517847E+03  0.21797729352E+03  0.88704237541E+02 0.  0.
          5    1    4    4  502    0 -0.15657850952E+01  0.37367301166E+02  0.88637075628E+02  0.96319198789E+02  0.47000000000E+01 0. -1.
         -5    1    3    3    0  503 -0.21260940974E+02 -0.33440837636E+02  0.30851147355E+03  0.31108155932E+03  0.47000000000E+01 0.  1.
          5    1    3    3  503    0 -0.47383485092E+02  0.15221208629E+02  0.34215130126E+02  0.60577594713E+02  0.47000000000E+01 0.  1.
         -5    1    4    4    0  502  0.70210211161E+02 -0.19147672160E+02  0.97378102844E+02  0.12165809473E+03  0.47000000000E+01 0.  1.
<mgrwt>
<rscale>  0 0.13555668E+03</rscale>
<asrwt>0</asrwt>
<pdfrwt beam="1">  1        1 0.86029087E-01 0.14376718E+03</pdfrwt>
<pdfrwt beam="2">  1       -1 0.46842054E-02 0.14376718E+03</pdfrwt>
<totfact> 0.72494186E+03</totfact>
</mgrwt>
</event>
<event>
 8    1  0.3551276E-004  0.2298399E+03  0.7546771E-02  0.1129623E+00
          1   -1    0    0  501    0  0.00000000000E+00  0.00000000000E+00  0.26660807434E+04  0.26660807434E+04  0.00000000000E+00 0. -1.
         -1   -1    0    0    0  501 -0.00000000000E+00 -0.00000000000E+00 -0.19660712365E+02  0.19660712365E+02  0.00000000000E+00 0.  1.
         25    2    1    2    0    0 -0.19271383744E+03 -0.80123216209E+01  0.10388775139E+04  0.10639985366E+04  0.12499430627E+03 0.  0.
         23    2    1    2    0    0  0.19271383744E+03  0.80123216209E+01  0.16075425171E+04  0.16217429191E+04  0.93028656656E+02 0.  0.
          5    1    3    3  502    0 -0.14330788970E+03  0.13572057987E+01  0.95782033338E+03  0.96849412714E+03  0.47000000000E+01 0. -1.
         -5    1    4    4    0  503  0.87347363722E+02 -0.42427343376E+02  0.72163428528E+03  0.72815367410E+03  0.47000000000E+01 0.  1.
          5    1    4    4  503    0  0.10536647372E+03  0.50439664997E+02  0.88590823184E+03  0.89358924503E+03  0.47000000000E+01 0. -1.
         -5    1    3    3    0  502 -0.49405947744E+02 -0.93695274197E+01  0.81057180494E+02  0.95504409459E+02  0.47000000000E+01 0. -1.
<mgrwt>
<rscale>  0 0.22581095E+03</rscale>
<asrwt>0</asrwt>
<pdfrwt beam="1">  1        1 0.41016598E+00 0.22983994E+03</pdfrwt>
<pdfrwt beam="2">  1       -1 0.30247271E-02 0.22983994E+03</pdfrwt>
<totfact> 0.46071540E+02</totfact>
</mgrwt>
</event>
<event>
 8    1  0.3551276E-004  0.1906239E+03  0.7546771E-02  0.1162587E+00
          1   -1    0    0  501    0  0.00000000000E+00  0.00000000000E+00  0.45355327243E+03  0.45355327243E+03  0.00000000000E+00 0. -1.
         -1   -1    0    0    0  501 -0.00000000000E+00 -0.00000000000E+00 -0.12297066967E+03  0.12297066967E+03  0.00000000000E+00 0.  1.
         25    2    1    2    0    0  0.10349642044E+03  0.10000403028E+03  0.35589644915E+03  0.40373228399E+03  0.12500063801E+03 0.  0.
         23    2    1    2    0    0 -0.10349642044E+03 -0.10000403028E+03 -0.25313846389E+02  0.17279165811E+03  0.92216328158E+02 0.  0.
          5    1    3    3  502    0  0.93626999531E+02  0.50945552528E+02  0.11190042724E+03  0.15461325939E+03  0.47000000000E+01 0. -1.
         -5    1    3    3    0  502  0.98694209102E+01  0.49058477749E+02  0.24399602191E+03  0.24911902460E+03  0.47000000000E+01 0. -1.
          5    1    4    4  503    0 -0.62503529301E+01 -0.67757226111E+02 -0.13769806907E+02  0.69583088350E+02  0.47000000000E+01 0. -1.
         -5    1    4    4    0  503 -0.97246067511E+02 -0.32246804166E+02 -0.11544039483E+02  0.10320856976E+03  0.47000000000E+01 0.  1.
<mgrwt>
<rscale>  0 0.18549659E+03</rscale>
<asrwt>0</asrwt>
<pdfrwt beam="1">  1        1 0.69777425E-01 0.19062391E+03</pdfrwt>
<pdfrwt beam="2">  1       -1 0.18918565E-01 0.19062391E+03</pdfrwt>
<totfact> 0.11332353E+03</totfact>
</mgrwt>
</event>
<event>
 8    1  0.3551276E-004  0.1661879E+03  0.7546771E-02  0.1188649E+00
         -2   -1    0    0    0  501 -0.00000000000E+00  0.00000000000E+00  0.35164224728E+02  0.35164224728E+02  0.00000000000E+00 0. -1.
          2   -1    0    0  501    0  0.00000000000E+00 -0.00000000000E+00 -0.69645172472E+03  0.69645172472E+03  0.00000000000E+00 0.  1.
         25    2    1    2    0    0  0.10941449967E+03 -0.46133681238E+01 -0.29777231374E+03  0.34100846291E+03  0.12500242015E+03 0.  0.
         23    2    1    2    0    0 -0.10941449967E+03  0.46133681238E+01 -0.36351518625E+03  0.39060748653E+03  0.91859142169E+02 0.  0.
          5    1    4    4  502    0 -0.39083218023E+02 -0.37136415890E+02 -0.89323238379E+02  0.10443822208E+03  0.47000000000E+01 0. -1.
         -5    1    3    3    0  503  0.91825289444E+02 -0.46120941051E+02 -0.12245049666E+03  0.15992260352E+03  0.47000000000E+01 0. -1.
          5    1    3    3  503    0  0.17589210224E+02  0.41507572927E+02 -0.17532181708E+03  0.18108585939E+03  0.47000000000E+01 0. -1.
         -5    1    4    4    0  502 -0.70331281645E+02  0.41749784014E+02 -0.27419194787E+03  0.28616926446E+03  0.47000000000E+01 0.  1.
<mgrwt>
<rscale>  0 0.16004258E+03</rscale>
<asrwt>0</asrwt>
<pdfrwt beam="1">  1        2 0.10714641E+00 0.16618791E+03</pdfrwt>
<pdfrwt beam="2">  1       -2 0.54098813E-02 0.16618791E+03</pdfrwt>
<totfact> 0.71316708E+03</totfact>
</mgrwt>
</event>
<event>
 8    1  0.3551276E-004  0.1264053E+03  0.7546771E-02  0.1248168E+00
         -1   -1    0    0    0  501 -0.00000000000E+00  0.00000000000E+00  0.25587749776E+03  0.25587749776E+03  0.00000000000E+00 0.  1.
          1   -1    0    0  501    0  0.00000000000E+00 -0.00000000000E+00 -0.50621615062E+02  0.50621615062E+02  0.00000000000E+00 0. -1.
         25    2    1    2    0    0  0.17542561244E+02 -0.67242422866E+01  0.15830503487E+03  0.20258033173E+03  0.12500139939E+03 0.  0.
         23    2    1    2    0    0 -0.17542561244E+02  0.67242422866E+01  0.46950847820E+02  0.10391878108E+03  0.90784217028E+02 0.  0.
          5    1    4    4  502    0  0.26659868216E+02 -0.19953865373E+02 -0.50724258753E+00  0.33634098942E+02  0.47000000000E+01 0. -1.
         -5    1    3    3    0  503  0.34218369123E+02  0.24666984460E+02  0.16111843248E+03  0.16661511394E+03  0.47000000000E+01 0.  1.
          5    1    3    3  503    0 -0.16675807878E+02 -0.31391226747E+02 -0.28133976065E+01  0.35965217796E+02  0.47000000000E+01 0.  1.
         -5    1    4    4    0  502 -0.44202429460E+02  0.26678107659E+02  0.47458090408E+02  0.70284682141E+02  0.47000000000E+01 0.  1.
<mgrwt>
<rscale>  0 0.11697770E+03</rscale>
<asrwt>0</asrwt>
<pdfrwt beam="1">  1        1 0.77879409E-02 0.12640533E+03</pdfrwt>
<pdfrwt beam="2">  1       -1 0.39365768E-01 0.12640533E+03</pdfrwt>
<totfact> 0.54290907E+03</totfact>
</mgrwt>
</event>
<event>
 8    1  0.3551276E-004  0.1314072E+03  0.7546771E-02  0.1238602E+00
          1   -1    0    0  501    0  0.00000000000E+00  0.00000000000E+00  0.27579714979E+03  0.27579714979E+03  0.00000000000E+00 0. -1.
         -1   -1    0    0    0  501 -0.00000000000E+00 -0.00000000000E+00 -0.49054554782E+02  0.49054554782E+02  0.00000000000E+00 0.  1.
         25    2    1    2    0    0 -0.20643470095E+02 -0.34943133709E+02  0.11281061893E+03  0.17318802186E+03  0.12498271769E+03 0.  0.
         23    2    1    2    0    0  0.20643470095E+02  0.34943133709E+02  0.11393197608E+03  0.15166368271E+03  0.91510666205E+02 0.  0.
          5    1    4    4  502    0 -0.50967574349E+01  0.30996727431E+02  0.12031999312E+03  0.12444181287E+03  0.47000000000E+01 0. -1.
         -5    1    3    3    0  503  0.37945238696E+02 -0.56312954618E+02  0.68290845538E+02  0.96419497934E+02  0.47000000000E+01 0.  1.
          5    1    3    3  503    0 -0.58588708790E+02  0.21369820909E+02  0.44519773392E+02  0.76768523929E+02  0.47000000000E+01 0.  1.
         -5    1    4    4    0  502  0.25740227529E+02  0.39464062784E+01 -0.63880170376E+01  0.27221869838E+02  0.47000000000E+01 0.  1.
<mgrwt>
<rscale>  0 0.12276663E+03</rscale>
<asrwt>0</asrwt>
<pdfrwt beam="1">  1        1 0.42430330E-01 0.13140721E+03</pdfrwt>
<pdfrwt beam="2">  1       -1 0.75468547E-02 0.13140721E+03</pdfrwt>
<totfact> 0.86798960E+03</totfact>
</mgrwt>
</event>
<event>
 8    1  0.3551276E-004  0.1322795E+03  0.7546771E-02  0.1238199E+00
         -1   -1    0    0    0  501 -0.00000000000E+00  0.00000000000E+00  0.37192918257E+02  0.37192918257E+02  0.00000000000E+00 0.  1.
          1   -1    0    0  501    0  0.00000000000E+00 -0.00000000000E+00 -0.40303604612E+03  0.40303604612E+03  0.00000000000E+00 0. -1.
         25    2    1    2    0    0 -0.35449580000E+02  0.24925017861E+02 -0.27820427893E+03  0.30805109912E+03  0.12497971680E+03 0.  0.
         23    2    1    2    0    0  0.35449580000E+02 -0.24925017861E+02 -0.87638848928E+02  0.13217786526E+03  0.88952183703E+02 0.  0.
          5    1    4    4  502    0  0.13914499307E+02  0.24555758187E+02 -0.69324791470E+02  0.74997435046E+02  0.47000000000E+01 0. -1.
         -5    1    4    4    0  502  0.21535080692E+02 -0.49480776049E+02 -0.18314057458E+02  0.57180430213E+02  0.47000000000E+01 0.  1.
          5    1    3    3  503    0 -0.16950837608E+02 -0.23922668803E+02 -0.53118855567E+01  0.30165064336E+02  0.47000000000E+01 0.  1.
         -5    1    3    3    0  503 -0.18498742392E+02  0.48847686664E+02 -0.27289239338E+03  0.27788603478E+03  0.47000000000E+01 0.  1.
<mgrwt>
<rscale>  0 0.12301824E+03</rscale>
<asrwt>0</asrwt>
<pdfrwt beam="1">  1        1 0.62005546E-01 0.13227947E+03</pdfrwt>
<pdfrwt beam="2">  1       -1 0.57219874E-02 0.13227947E+03</pdfrwt>
<totfact> 0.81921730E+03</totfact>
</mgrwt>
</event>
<event>
 8    1  0.3551276E-004  0.1446385E+03  0.7546771E-02  0.1217188E+00
          1   -1    0    0  501    0  0.00000000000E+00  0.00000000000E+00  0.23023310536E+02  0.23023310536E+02  0.00000000000E+00 0. -1.
         -1   -1    0    0    0  501 -0.00000000000E+00 -0.00000000000E+00 -0.75457241775E+03  0.75457241775E+03  0.00000000000E+00 0.  1.
         25    2    1    2    0    0 -0.42122452159E+00 -0.72763135085E+02 -0.35663369246E+03  0.38484788289E+03  0.12500260444E+03 0.  0.
         23    2    1    2    0    0  0.42122452159E+00  0.72763135085E+02 -0.37491541476E+03  0.39274784539E+03  0.91622325768E+02 0.  0.
          5    1    3    3  502    0  0.57440206180E+02 -0.28721997159E+02 -0.10783197555E+03  0.12559520435E+03  0.47000000000E+01 0.  1.
         -5    1    4    4    0  503  0.59706043469E+01  0.52578664114E+02 -0.36546177684E+03  0.36930280851E+03  0.47000000000E+01 0.  1.
          5    1    4    4  503    0 -0.55493798253E+01  0.20184470971E+02 -0.94536379159E+01  0.23445036888E+02  0.47000000000E+01 0. -1.
         -5    1    3    3    0  502 -0.57861430701E+02 -0.44041137926E+02 -0.24880171691E+03  0.25925267854E+03  0.47000000000E+01 0.  1.
<mgrwt>
<rscale>  0 0.13717048E+03</rscale>
<asrwt>0</asrwt>
<pdfrwt beam="1">  1        1 0.35420480E-02 0.14463852E+03</pdfrwt>
<pdfrwt beam="2">  1       -1 0.11608806E+00 0.14463852E+03</pdfrwt>
<totfact> 0.18804247E+03</totfact>
</mgrwt>
</event>
<event>
 8    1  0.3551276E-004  0.3139860E+03  0.7546771E-02  0.1079891E+00
          2   -1    0    0  501    0  0.00000000000E+00  0.00000000000E+00  0.59291242667E+03  0.59291242667E+03  0.00000000000E+00 0.  1.
         -2   -1    0    0    0  501 -0.00000000000E+00 -0.00000000000E+00 -0.24601490188E+03  0.24601490188E+03  0.00000000000E+00 0. -1.
         25    2    1    2    0    0 -0.13465102701E+03 -0.25462020364E+03  0.42363734321E+03  0.52730998680E+03  0.12499950576E+03 0.  0.
         23    2    1    2    0    0  0.13465102701E+03  0.25462020364E+03 -0.76739818418E+02  0.31161734175E+03  0.90851641548E+02 0.  0.
          5    1    4    4  502    0  0.14165607430E+02  0.10287969928E+03 -0.51980060385E+02  0.11622785224E+03  0.47000000000E+01 0. -1.
         -5    1    4    4    0  502  0.12048541958E+03  0.15174050436E+03 -0.24759758033E+02  0.19538948951E+03  0.47000000000E+01 0.  1.
          5    1    3    3  503    0 -0.11934003420E+03 -0.94507569052E+02  0.22450219379E+03  0.27128776122E+03  0.47000000000E+01 0.  1.
         -5    1    3    3    0  503 -0.15310992805E+02 -0.16011263459E+03  0.19913514942E+03  0.25602222558E+03  0.47000000000E+01 0.  1.
<mgrwt>
<rscale>  0 0.31095091E+03</rscale>
<asrwt>0</asrwt>
<pdfrwt beam="1">  1        2 0.91217296E-01 0.31398602E+03</pdfrwt>
<pdfrwt beam="2">  1       -2 0.37848447E-01 0.31398602E+03</pdfrwt>
<totfact> 0.34043872E+02</totfact>
</mgrwt>
</event>
<event>
 8    1  0.3551276E-004  0.2103326E+03  0.7546771E-02  0.1145113E+00
          2   -1    0    0  501    0  0.00000000000E+00  0.00000000000E+00  0.26503611638E+04  0.26503611638E+04  0.00000000000E+00 0. -1.
         -2   -1    0    0    0  501 -0.00000000000E+00 -0.00000000000E+00 -0.16360583897E+02  0.16360583897E+02  0.00000000000E+00 0.  1.
         25    2    1    2    0    0  0.16425131923E+03  0.40430929889E+02  0.10285740129E+04  0.10498591840E+04  0.12500660105E+03 0.  0.
         23    2    1    2    0    0 -0.16425131923E+03 -0.40430929889E+02  0.16054265670E+04  0.16168625636E+04  0.90757544074E+02 0.  0.
          5    1    3    3  502    0  0.56815876612E+02  0.48819094723E+02  0.18857476778E+03  0.20296275739E+03  0.47000000000E+01 0. -1.
         -5    1    3    3    0  502  0.10743544262E+03 -0.83881648335E+01  0.83999924515E+03  0.84689642666E+03  0.47000000000E+01 0. -1.
          5    1    4    4  503    0 -0.10828820609E+03 -0.69081251645E+02  0.10278913903E+04  0.10358964018E+04  0.47000000000E+01 0. -1.
         -5    1    4    4    0  503 -0.55963113137E+02  0.28650321756E+02  0.57753517665E+03  0.58096616187E+03  0.47000000000E+01 0.  1.
<mgrwt>
<rscale>  0 0.20558185E+03</rscale>
<asrwt>0</asrwt>
<pdfrwt beam="1">  1        2 0.40774753E+00 0.21033261E+03</pdfrwt>
<pdfrwt beam="2">  1       -2 0.25170150E-02 0.21033261E+03</pdfrwt>
<totfact> 0.18344529E+03</totfact>
</mgrwt>
</event>
<event>
 8    1  0.3551276E-004  0.2374049E+03  0.7546771E-02  0.1124171E+00
         -1   -1    0    0    0  501 -0.00000000000E+00  0.00000000000E+00  0.26290021861E+03  0.26290021861E+03  0.00000000000E+00 0.  1.
          1   -1    0    0  501    0  0.00000000000E+00 -0.00000000000E+00 -0.20770961572E+03  0.20770961572E+03  0.00000000000E+00 0. -1.
         25    2    1    2    0    0 -0.20089023886E+03  0.19482952171E+02 -0.13847441763E+02  0.23780842446E+03  0.12499848642E+03 0.  0.
         23    2    1    2    0    0  0.20089023886E+03 -0.19482952171E+02  0.69038044650E+02  0.23280140987E+03  0.93240395399E+02 0.  0.
          5    1    4    4  502    0  0.32096269879E+02 -0.37307616203E+02  0.32361378006E+02  0.59087879919E+02  0.47000000000E+01 0.  1.
         -5    1    4    4    0  502  0.16879396898E+03  0.17824664031E+02  0.36676666644E+02  0.17371352995E+03  0.47000000000E+01 0. -1.
          5    1    3    3  503    0 -0.10025334469E+03  0.65534856300E+02  0.20984654896E+02  0.12168811057E+03  0.47000000000E+01 0. -1.
         -5    1    3    3    0  503 -0.10063689416E+03 -0.46051904129E+02 -0.34832096659E+02  0.11612031389E+03  0.47000000000E+01 0. -1.
<mgrwt>
<rscale>  0 0.23354274E+03</rscale>
<asrwt>0</asrwt>
<pdfrwt beam="1">  1        1 0.31955325E-01 0.23740492E+03</pdfrwt>
<pdfrwt beam="2">  1       -1 0.40446188E-01 0.23740492E+03</pdfrwt>
<totfact> 0.84660119E+02</totfact>
</mgrwt>
</event>
<event>
 8    1  0.3551276E-004  0.1628478E+03  0.7546771E-02  0.1193055E+00
         -1   -1    0    0    0  501 -0.00000000000E+00  0.00000000000E+00  0.23587780476E+03  0.23587780476E+03  0.00000000000E+00 0.  1.
          1   -1    0    0  501    0  0.00000000000E+00 -0.00000000000E+00 -0.13578878321E+03  0.13578878321E+03  0.00000000000E+00 0. -1.
         25    2    1    2    0    0  0.43113843808E+02  0.95052429313E+02  0.15354816609E+03  0.22382234503E+03  0.12500253988E+03 0.  0.
         23    2    1    2    0    0 -0.43113843808E+02 -0.95052429313E+02 -0.53459144544E+02  0.14784424294E+03  0.90034838750E+02 0.  0.
          5    1    3    3  502    0  0.21909763892E+01  0.57144384939E+02  0.15757551786E+03  0.16769739097E+03  0.47000000000E+01 0. -1.
         -5    1    3    3    0  502  0.40922867418E+02  0.37908044375E+02 -0.40273517714E+01  0.56124954061E+02  0.47000000000E+01 0. -1.
          5    1    4    4  503    0 -0.69246701509E+02 -0.54877068928E+02 -0.43803090668E+02  0.98728917325E+02  0.47000000000E+01 0. -1.
         -5    1    4    4    0  503  0.26132857702E+02 -0.40175360385E+02 -0.96560538759E+01  0.49115325614E+02  0.47000000000E+01 0.  1.
<mgrwt>
<rscale>  0 0.15619989E+03</rscale>
<asrwt>0</asrwt>
<pdfrwt beam="1">  1        1 0.20890582E-01 0.16284779E+03</pdfrwt>
<pdfrwt beam="2">  1       -1 0.36288893E-01 0.16284779E+03</pdfrwt>
<totfact> 0.17419048E+03</totfact>
</mgrwt>
</event>
<event>
 8    1  0.3551276E-004  0.1845284E+03  0.7546771E-02  0.1168777E+00
         -2   -1    0    0    0  501 -0.00000000000E+00  0.00000000000E+00  0.25436743726E+02  0.25436743726E+02  0.00000000000E+00 0.  1.
          2   -1    0    0  501    0  0.00000000000E+00 -0.00000000000E+00 -0.11970649257E+04  0.11970649257E+04  0.00000000000E+00 0. -1.
         25    2    1    2    0    0 -0.72028019152E+02  0.11506462816E+03 -0.66934165838E+03  0.69431186654E+03  0.12499123238E+03 0.  0.
         23    2    1    2    0    0  0.72028019152E+02 -0.11506462816E+03 -0.50228652359E+03  0.52818980288E+03  0.90911010868E+02 0.  0.
          5    1    4    4  502    0  0.23532993405E+02 -0.56569704713E+02 -0.37400826442E+03  0.37902269737E+03  0.47000000000E+01 0. -1.
         -5    1    3    3    0  503 -0.22334814066E+02  0.11711141687E+03 -0.57814640766E+03  0.59032981169E+03  0.47000000000E+01 0. -1.
          5    1    3    3  503    0 -0.49693205087E+02 -0.20467887059E+01 -0.91195250721E+02  0.10398205485E+03  0.47000000000E+01 0. -1.
         -5    1    4    4    0  502  0.48495025747E+02 -0.58494923449E+02 -0.12827825917E+03  0.14916710551E+03  0.47000000000E+01 0.  1.
<mgrwt>
<rscale>  0 0.17899728E+03</rscale>
<asrwt>0</asrwt>
<pdfrwt beam="1">  1        2 0.18416383E+00 0.18452835E+03</pdfrwt>
<pdfrwt beam="2">  1       -2 0.39133454E-02 0.18452835E+03</pdfrwt>
<totfact> 0.56323209E+03</totfact>
</mgrwt>
</event>
<event>
 8    1  0.3551276E-004  0.1720463E+03  0.7546771E-02  0.1182144E+00
          2   -1    0    0  501    0  0.00000000000E+00  0.00000000000E+00  0.17157765636E+04  0.17157765636E+04  0.00000000000E+00 0. -1.
         -2   -1    0    0    0  501 -0.00000000000E+00 -0.00000000000E+00 -0.15791192968E+02  0.15791192968E+02  0.00000000000E+00 0.  1.
         25    2    1    2    0    0  0.11585315813E+03 -0.23536902794E+02  0.11004026325E+04  0.11137710153E+04  0.12499592369E+03 0.  0.
         23    2    1    2    0    0 -0.11585315813E+03  0.23536902794E+02  0.59958273818E+03  0.61779674128E+03  0.90539569107E+02 0.  0.
          5    1    3    3  502    0  0.13330101446E+03  0.61404468803E+01  0.95415944508E+03  0.96345690209E+03  0.47000000000E+01 0.  1.
         -5    1    4    4    0  503 -0.10969689907E+03 -0.13529210200E+02  0.42582542381E+03  0.43996116960E+03  0.47000000000E+01 0.  1.
          5    1    4    4  503    0 -0.61562590619E+01  0.37066112994E+02  0.17375731437E+03  0.17783557168E+03  0.47000000000E+01 0. -1.
         -5    1    3    3    0  502 -0.17447856325E+02 -0.29677349674E+02  0.14624318739E+03  0.15031411321E+03  0.47000000000E+01 0.  1.
<mgrwt>
<rscale>  0 0.16594451E+03</rscale>
<asrwt>0</asrwt>
<pdfrwt beam="1">  1        2 0.26396548E+00 0.17204628E+03</pdfrwt>
<pdfrwt beam="2">  1       -2 0.24294157E-02 0.17204628E+03</pdfrwt>
<totfact> 0.60266959E+03</totfact>
</mgrwt>
</event>
<event>
 8    1  0.3551276E-004  0.1690438E+03  0.7546771E-02  0.1185276E+00
         -1   -1    0    0    0  501 -0.00000000000E+00  0.00000000000E+00  0.11455660300E+03  0.11455660300E+03  0.00000000000E+00 0.  1.
          1   -1    0    0  501    0  0.00000000000E+00 -0.00000000000E+00 -0.21858078717E+03  0.21858078717E+03  0.00000000000E+00 0. -1.
         25    2    1    2    0    0  0.13662732049E+02  0.11297509829E+03 -0.42157779498E+02  0.17422139406E+03  0.12500309073E+03 0.  0.
         23    2    1    2    0    0 -0.13662732049E+02 -0.11297509829E+03 -0.61866404668E+02  0.15891599611E+03  0.92069531942E+02 0.  0.
          5    1    3    3  502    0  0.68657117123E+02  0.76224422475E+02 -0.23779535679E+02  0.10541118836E+03  0.47000000000E+01 0.  1.
         -5    1    3    3    0  502 -0.54994385074E+02  0.36750675819E+02 -0.18378243819E+02  0.68810205702E+02  0.47000000000E+01 0.  1.
          5    1    4    4  503    0  0.25280905212E+02  0.41897123202E+00 -0.16932312786E+02  0.30791117575E+02  0.47000000000E+01 0. -1.
         -5    1    4    4    0  503 -0.38943637261E+02 -0.11339406953E+03 -0.44934091883E+02  0.12812487854E+03  0.47000000000E+01 0.  1.
<mgrwt>
<rscale>  0 0.16306819E+03</rscale>
<asrwt>0</asrwt>
<pdfrwt beam="1">  1        1 0.33627813E-01 0.16904383E+03</pdfrwt>
<pdfrwt beam="2">  1       -1 0.17624093E-01 0.16904383E+03</pdfrwt>
<totfact> 0.31698593E+03</totfact>
</mgrwt>
</event>
<event>
 8    1  0.3551276E-004  0.1606527E+03  0.7546771E-02  0.1195377E+00
         -2   -1    0    0    0  501 -0.00000000000E+00  0.00000000000E+00  0.12896839047E+03  0.12896839047E+03  0.00000000000E+00 0.  1.
          2   -1    0    0  501    0  0.00000000000E+00 -0.00000000000E+00 -0.17789639978E+03  0.17789639978E+03  0.00000000000E+00 0. -1.
         25    2    1    2    0    0  0.63673287118E+02 -0.78300566538E+02 -0.56283413845E+02  0.17022662763E+03  0.12499606341E+03 0.  0.
         23    2    1    2    0    0 -0.63673287118E+02  0.78300566538E+02  0.73554045337E+01  0.13663816263E+03  0.91818403914E+02 0.  0.
          5    1    4    4  502    0  0.15542032731E+02  0.31268735939E+02 -0.19882126075E+02  0.40455871834E+02  0.47000000000E+01 0. -1.
         -5    1    4    4    0  502 -0.79215319849E+02  0.47031830599E+02  0.27237530609E+02  0.96182290791E+02  0.47000000000E+01 0.  1.
          5    1    3    3  503    0 -0.25663744818E+02 -0.65103578642E+02 -0.27367035557E+02  0.75287106368E+02  0.47000000000E+01 0.  1.
         -5    1    3    3    0  503  0.89337031936E+02 -0.13196987895E+02 -0.28916378288E+02  0.94939521264E+02  0.47000000000E+01 0.  1.
<mgrwt>
<rscale>  0 0.15422381E+03</rscale>
<asrwt>0</asrwt>
<pdfrwt beam="1">  1        2 0.27368677E-01 0.16065268E+03</pdfrwt>
<pdfrwt beam="2">  1       -2 0.19841291E-01 0.16065268E+03</pdfrwt>
<totfact> 0.40111867E+03</totfact>
</mgrwt>
</event>
<event>
 8    1  0.3551276E-004  0.1581503E+03  0.7546771E-02  0.1200075E+00
          1   -1    0    0  501    0  0.00000000000E+00  0.00000000000E+00  0.55943244071E+03  0.55943244071E+03  0.00000000000E+00 0. -1.
         -1   -1    0    0    0  501 -0.00000000000E+00 -0.00000000000E+00 -0.49240415983E+02  0.49240415983E+02  0.00000000000E+00 0.  1.
         25    2    1    2    0    0  0.90664405788E+02 -0.34156511003E+02  0.42636414059E+03  0.45475036845E+03  0.12499926200E+03 0.  0.
         23    2    1    2    0    0 -0.90664405788E+02  0.34156511003E+02  0.83827884129E+02  0.15392248824E+03  0.85313050042E+02 0.  0.
          5    1    4    4  502    0 -0.74650217707E+02 -0.10614910043E+02  0.28317518255E+02  0.80680252597E+02  0.47000000000E+01 0. -1.
         -5    1    4    4    0  502 -0.16014188081E+02  0.44771421047E+02  0.55510365875E+02  0.73242235643E+02  0.47000000000E+01 0.  1.
          5    1    3    3  503    0  0.11367901183E+03 -0.31973496626E+02  0.24673786947E+03  0.27358159377E+03  0.47000000000E+01 0. -1.
         -5    1    3    3    0  503 -0.23014606041E+02 -0.21830143777E+01  0.17962627112E+03  0.18116877468E+03  0.47000000000E+01 0. -1.
<mgrwt>
<rscale>  0 0.15032397E+03</rscale>
<asrwt>0</asrwt>
<pdfrwt beam="1">  1        1 0.86066525E-01 0.15815030E+03</pdfrwt>
<pdfrwt beam="2">  1       -1 0.75754490E-02 0.15815030E+03</pdfrwt>
<totfact> 0.35503442E+03</totfact>
</mgrwt>
</event>
<event>
 8    1  0.3551276E-004  0.1446184E+03  0.7546771E-02  0.1217580E+00
          2   -1    0    0  501    0  0.00000000000E+00  0.00000000000E+00  0.48528152075E+03  0.48528152075E+03  0.00000000000E+00 0.  1.
         -2   -1    0    0    0  501 -0.00000000000E+00 -0.00000000000E+00 -0.45267940933E+02  0.45267940933E+02  0.00000000000E+00 0. -1.
         25    2    1    2    0    0  0.58907823706E+02 -0.42653322143E+02  0.36429943652E+03  0.39195479035E+03  0.12500016258E+03 0.  0.
         23    2    1    2    0    0 -0.58907823706E+02  0.42653322143E+02  0.75714143298E+02  0.13859467133E+03  0.90478803283E+02 0.  0.
          5    1    3    3  502    0  0.33610868311E+02  0.43122532616E+02  0.14830676473E+03  0.15813358199E+03  0.47000000000E+01 0.  1.
         -5    1    4    4    0  503 -0.34394001037E+02  0.50479469798E+02  0.89936379993E+02  0.10881988157E+03  0.47000000000E+01 0.  1.
          5    1    4    4  503    0 -0.24513822669E+02 -0.78261476551E+01 -0.14222236695E+02  0.29774789765E+02  0.47000000000E+01 0. -1.
         -5    1    3    3    0  502  0.25296955394E+02 -0.85775854759E+02  0.21599267179E+03  0.23382120836E+03  0.47000000000E+01 0.  1.
<mgrwt>
<rscale>  0 0.13688699E+03</rscale>
<asrwt>0</asrwt>
<pdfrwt beam="1">  1        2 0.74658692E-01 0.14461839E+03</pdfrwt>
<pdfrwt beam="2">  1       -2 0.69642990E-02 0.14461839E+03</pdfrwt>
<totfact> 0.72682368E+03</totfact>
</mgrwt>
</event>
<event>
 8    1  0.3551276E-004  0.1484812E+03  0.7546771E-02  0.1211568E+00
          1   -1    0    0  501    0  0.00000000000E+00  0.00000000000E+00  0.10920441461E+04  0.10920441461E+04  0.00000000000E+00 0. -1.
         -1   -1    0    0    0  501 -0.00000000000E+00 -0.00000000000E+00 -0.21695413610E+02  0.21695413610E+02  0.00000000000E+00 0.  1.
         25    2    1    2    0    0  0.14002740918E+02  0.78896132984E+02  0.31038167874E+03  0.34406895799E+03  0.12500393913E+03 0.  0.
         23    2    1    2    0    0 -0.14002740918E+02 -0.78896132984E+02  0.75996705374E+03  0.76967060171E+03  0.91772740093E+02 0.  0.
          5    1    3    3  502    0  0.81388526606E+01 -0.33309924709E+02  0.94764836431E+02  0.10088734425E+03  0.47000000000E+01 0. -1.
         -5    1    3    3    0  502  0.58638882572E+01  0.11220605769E+03  0.21561684231E+03  0.24318161373E+03  0.47000000000E+01 0. -1.
          5    1    4    4  503    0 -0.37225810570E+02  0.94980106675E+00  0.28431377123E+03  0.28678053213E+03  0.47000000000E+01 0. -1.
         -5    1    4    4    0  503  0.23223069652E+02 -0.79845934051E+02  0.47565328251E+03  0.48289006959E+03  0.47000000000E+01 0.  1.
<mgrwt>
<rscale>  0 0.14131669E+03</rscale>
<asrwt>0</asrwt>
<pdfrwt beam="1">  1        1 0.16800675E+00 0.14848118E+03</pdfrwt>
<pdfrwt beam="2">  1       -1 0.33377568E-02 0.14848118E+03</pdfrwt>
<totfact> 0.43283705E+03</totfact>
</mgrwt>
</event>
<event>
 8    1  0.3551276E-004  0.2273872E+03  0.7546771E-02  0.1131665E+00
         -1   -1    0    0    0  501 -0.00000000000E+00  0.00000000000E+00  0.45226937514E+03  0.45226937514E+03  0.00000000000E+00 0.  1.
          1   -1    0    0  501    0  0.00000000000E+00 -0.00000000000E+00 -0.23543172697E+03  0.23543172697E+03  0.00000000000E+00 0. -1.
         25    2    1    2    0    0  0.44128238118E+02  0.18475283569E+03  0.36526615525E+03  0.43026071764E+03  0.12499603706E+03 0.  0.
         23    2    1    2    0    0 -0.44128238118E+02 -0.18475283569E+03 -0.14842850708E+03  0.25744038447E+03  0.90352742888E+02 0.  0.
          5    1    3    3  502    0  0.55721462219E+02  0.82167861681E+02  0.27720795855E+03  0.29448731913E+03  0.47000000000E+01 0.  1.
         -5    1    3    3    0  502 -0.11593224101E+02  0.10258497401E+03  0.88058196701E+02  0.13577339851E+03  0.47000000000E+01 0.  1.
          5    1    4    4  503    0 -0.19316455061E+02 -0.18400854442E+03 -0.13041357384E+03  0.22641126319E+03  0.47000000000E+01 0. -1.
         -5    1    4    4    0  503 -0.24811783057E+02 -0.74429126869E+00 -0.18014933240E+02  0.31029121283E+02  0.47000000000E+01 0.  1.
<mgrwt>
<rscale>  0 0.22300105E+03</rscale>
<asrwt>0</asrwt>
<pdfrwt beam="1">  1        1 0.36220266E-01 0.22738716E+03</pdfrwt>
<pdfrwt beam="2">  1       -1 0.69579904E-01 0.22738716E+03</pdfrwt>
<totfact> 0.26127793E+02</totfact>
</mgrwt>
</event>
<event>
 8    1  0.3551276E-004  0.1492876E+03  0.7546771E-02  0.1210954E+00
          2   -1    0    0  501    0  0.00000000000E+00  0.00000000000E+00  0.14088493819E+03  0.14088493819E+03  0.00000000000E+00 0. -1.
         -2   -1    0    0    0  501 -0.00000000000E+00 -0.00000000000E+00 -0.14166418646E+03  0.14166418646E+03  0.00000000000E+00 0.  1.
         25    2    1    2    0    0  0.52411541749E+02  0.62566465560E+02  0.39801033857E+02  0.15450215715E+03  0.12500104778E+03 0.  0.
         23    2    1    2    0    0 -0.52411541749E+02 -0.62566465560E+02 -0.40580282123E+02  0.12804696750E+03  0.89931831223E+02 0.  0.
          5    1    3    3  502    0 -0.15741674386E+02  0.72227728668E+02 -0.15049031218E+01  0.74087784651E+02  0.47000000000E+01 0. -1.
         -5    1    3    3    0  502  0.68153216135E+02 -0.96612631082E+01  0.41305936979E+02  0.80414372497E+02  0.47000000000E+01 0. -1.
          5    1    4    4  503    0 -0.65243736706E+02 -0.36092882689E+02  0.35585399419E+01  0.74794348494E+02  0.47000000000E+01 0. -1.
         -5    1    4    4    0  503  0.12832194957E+02 -0.26473582871E+02 -0.44138822065E+02  0.53252619003E+02  0.47000000000E+01 0.  1.
<mgrwt>
<rscale>  0 0.14177973E+03</rscale>
<asrwt>0</asrwt>
<pdfrwt beam="1">  1        2 0.21674606E-01 0.14928762E+03</pdfrwt>
<pdfrwt beam="2">  1       -2 0.21794490E-01 0.14928762E+03</pdfrwt>
<totfact> 0.44095571E+03</totfact>
</mgrwt>
</event>
<event>
 8    1  0.3551276E-004  0.1561257E+03  0.7546771E-02  0.1203125E+00
          2   -1    0    0  501    0  0.00000000000E+00  0.00000000000E+00  0.18180537028E+04  0.18180537028E+04  0.00000000000E+00 0. -1.
         -2   -1    0    0    0  501 -0.00000000000E+00 -0.00000000000E+00 -0.14353809423E+02  0.14353809423E+02  0.00000000000E+00 0.  1.
         25    2    1    2    0    0  0.13463471544E+02  0.92572201530E+02  0.14226186641E+04  0.14311600537E+04  0.12499743290E+03 0.  0.
         23    2    1    2    0    0 -0.13463471544E+02 -0.92572201530E+02  0.38108122926E+03  0.40124745853E+03  0.83819700069E+02 0.  0.
          5    1    4    4  502    0  0.14607697073E+02 -0.17633985261E+02  0.22084445069E+03  0.22207814762E+03  0.47000000000E+01 0. -1.
         -5    1    4    4    0  502 -0.28071168617E+02 -0.74938216269E+02  0.16023677857E+03  0.17916931091E+03  0.47000000000E+01 0.  1.
          5    1    3    3  503    0  0.13636768305E+02  0.12320034704E+03  0.12002744345E+04  0.12066669363E+04  0.47000000000E+01 0.  1.
         -5    1    3    3    0  503 -0.17329676167E+00 -0.30628145506E+02  0.22234422960E+03  0.22449311741E+03  0.47000000000E+01 0.  1.
<mgrwt>
<rscale>  0 0.14786233E+03</rscale>
<asrwt>0</asrwt>
<pdfrwt beam="1">  1        2 0.27970039E+00 0.15612571E+03</pdfrwt>
<pdfrwt beam="2">  1       -2 0.22082798E-02 0.15612571E+03</pdfrwt>
<totfact> 0.61265572E+03</totfact>
</mgrwt>
</event>
<event>
 8    1  0.3551276E-004  0.1285275E+03  0.7546771E-02  0.1244243E+00
          2   -1    0    0  501    0  0.00000000000E+00  0.00000000000E+00  0.90967286758E+03  0.90967286758E+03  0.00000000000E+00 0. -1.
         -2   -1    0    0    0  501 -0.00000000000E+00 -0.00000000000E+00 -0.14201485796E+02  0.14201485796E+02  0.00000000000E+00 0.  1.
         25    2    1    2    0    0 -0.57208835087E+01 -0.29374262394E+02  0.59028221406E+03  0.60411291969E+03  0.12499500668E+03 0.  0.
         23    2    1    2    0    0  0.57208835087E+01  0.29374262394E+02  0.30518916773E+03  0.31976143369E+03  0.90616613165E+02 0.  0.
          5    1    4    4  502    0 -0.30626453384E+02 -0.49804360660E+01  0.45594218286E+02  0.55350764506E+02  0.47000000000E+01 0. -1.
         -5    1    3    3    0  503  0.46194460648E+02 -0.34071505513E+01  0.44743044470E+03  0.44984622896E+03  0.47000000000E+01 0.  1.
          5    1    3    3  503    0 -0.51915344156E+02 -0.25967111843E+02  0.14285176936E+03  0.15426669072E+03  0.47000000000E+01 0.  1.
         -5    1    4    4    0  502  0.36347336893E+02  0.34354698460E+02  0.25959494944E+03  0.26441066919E+03  0.47000000000E+01 0.  1.
<mgrwt>
<rscale>  0 0.11930777E+03</rscale>
<asrwt>0</asrwt>
<pdfrwt beam="1">  1        2 0.13994963E+00 0.12852754E+03</pdfrwt>
<pdfrwt beam="2">  1       -2 0.21848447E-02 0.12852754E+03</pdfrwt>
<totfact> 0.19262110E+04</totfact>
</mgrwt>
</event>
<event>
 8    1  0.3551276E-004  0.1346873E+03  0.7546771E-02  0.1233051E+00
         -2   -1    0    0    0  501 -0.00000000000E+00  0.00000000000E+00  0.10981649297E+03  0.10981649297E+03  0.00000000000E+00 0.  1.
          2   -1    0    0  501    0  0.00000000000E+00 -0.00000000000E+00 -0.13990000600E+03  0.13990000600E+03  0.00000000000E+00 0. -1.
         25    2    1    2    0    0 -0.11959043096E+02 -0.48723985286E+02  0.16373483806E+02  0.13567884304E+03  0.12499444797E+03 0.  0.
         23    2    1    2    0    0  0.11959043096E+02  0.48723985286E+02 -0.46456996844E+02  0.11403765593E+03  0.91264938285E+02 0.  0.
          5    1    4    4  502    0 -0.13145327074E+02  0.29579284674E+02 -0.68048776353E+02  0.75501388523E+02  0.47000000000E+01 0. -1.
         -5    1    4    4    0  502  0.25104370170E+02  0.19144700612E+02  0.21591779510E+02  0.38536267406E+02  0.47000000000E+01 0.  1.
          5    1    3    3  503    0 -0.57905691662E+02 -0.49666532294E+01 -0.20901034879E+02  0.61940939855E+02  0.47000000000E+01 0. -1.
         -5    1    3    3    0  503  0.45946648566E+02 -0.43757332057E+02  0.37274518685E+02  0.73737903187E+02  0.47000000000E+01 0. -1.
<mgrwt>
<rscale>  0 0.12630055E+03</rscale>
<asrwt>0</asrwt>
<pdfrwt beam="1">  1        2 0.21523078E-01 0.13468726E+03</pdfrwt>
<pdfrwt beam="2">  1       -2 0.16894845E-01 0.13468726E+03</pdfrwt>
<totfact> 0.67808866E+03</totfact>
</mgrwt>
</event>
<event>
 8    1  0.3551276E-004  0.1709459E+03  0.7546771E-02  0.1183414E+00
         -2   -1    0    0    0  501 -0.00000000000E+00  0.00000000000E+00  0.22832750323E+03  0.22832750323E+03  0.00000000000E+00 0.  1.
          2   -1    0    0  501    0  0.00000000000E+00 -0.00000000000E+00 -0.11507977550E+03  0.11507977550E+03  0.00000000000E+00 0. -1.
         25    2    1    2    0    0  0.31407930390E+02 -0.11230977380E+03  0.28665487103E+02  0.17333267483E+03  0.12499025014E+03 0.  0.
         23    2    1    2    0    0 -0.31407930390E+02  0.11230977380E+03  0.84582240627E+02  0.17007460389E+03  0.90395088788E+02 0.  0.
          5    1    3    3  502    0  0.61310237943E+02 -0.37769834597E+02 -0.25286232603E+02  0.76465608225E+02  0.47000000000E+01 0.  1.
         -5    1    4    4    0  503 -0.61284878249E+02  0.92591952051E+02  0.59003247243E+02  0.12582757675E+03  0.47000000000E+01 0.  1.
          5    1    4    4  503    0  0.29876947859E+02  0.19717821749E+02  0.25578993384E+02  0.44247027137E+02  0.47000000000E+01 0. -1.
         -5    1    3    3    0  502 -0.29902307553E+02 -0.74539939203E+02  0.53951719706E+02  0.96867066605E+02  0.47000000000E+01 0.  1.
<mgrwt>
<rscale>  0 0.16477047E+03</rscale>
<asrwt>0</asrwt>
<pdfrwt beam="1">  1        2 0.17704581E-01 0.17094592E+03</pdfrwt>
<pdfrwt beam="2">  1       -2 0.35127308E-01 0.17094592E+03</pdfrwt>
<totfact> 0.23879454E+03</totfact>
</mgrwt>
</event>
<event>
 8    1  0.3551276E-004  0.1315877E+03  0.7546771E-02  0.1238917E+00
         -1   -1    0    0    0  501 -0.00000000000E+00  0.00000000000E+00  0.77594001726E+02  0.77594001726E+02  0.00000000000E+00 0.  1.
          1   -1    0    0  501    0  0.00000000000E+00 -0.00000000000E+00 -0.23692777904E+03  0.23692777904E+03  0.00000000000E+00 0. -1.
         25    2    1    2    0    0  0.31581874448E+02  0.26306537640E+02 -0.16990336398E+03  0.21490108482E+03  0.12500349776E+03 0.  0.
         23    2    1    2    0    0 -0.31581874448E+02 -0.26306537640E+02  0.10569586662E+02  0.99620695944E+02  0.90128342834E+02 0.  0.
          5    1    4    4  502    0 -0.49231049455E+02 -0.10091313462E+02 -0.25115881576E+02  0.56377551784E+02  0.47000000000E+01 0. -1.
         -5    1    3    3    0  503  0.56719942925E+02 -0.14318693551E+02 -0.27859348720E+02  0.64964684418E+02  0.47000000000E+01 0.  1.
          5    1    3    3  503    0 -0.25138068477E+02  0.40625231190E+02 -0.14204401526E+03  0.14993640040E+03  0.47000000000E+01 0.  1.
         -5    1    4    4    0  502  0.17649175007E+02 -0.16215224178E+02  0.35685468237E+02  0.43243144160E+02  0.47000000000E+01 0.  1.
<mgrwt>
<rscale>  0 0.12257003E+03</rscale>
<asrwt>0</asrwt>
<pdfrwt beam="1">  1        1 0.36450427E-01 0.13158770E+03</pdfrwt>
<pdfrwt beam="2">  1       -1 0.11937539E-01 0.13158770E+03</pdfrwt>
<totfact> 0.52132968E+03</totfact>
</mgrwt>
</event>
<event>
 8    1  0.3551276E-004  0.1979409E+03  0.7546771E-02  0.1156518E+00
         -2   -1    0    0    0  501 -0.00000000000E+00  0.00000000000E+00  0.14735530158E+03  0.14735530158E+03  0.00000000000E+00 0.  1.
          2   -1    0    0  501    0  0.00000000000E+00 -0.00000000000E+00 -0.24269205898E+03  0.24269205898E+03  0.00000000000E+00 0. -1.
         25    2    1    2    0    0 -0.33332200447E+02 -0.14981525973E+03 -0.80115591203E+02  0.21353946583E+03  0.12499979152E+03 0.  0.
         23    2    1    2    0    0  0.33332200447E+02  0.14981525973E+03 -0.15221166195E+02  0.17650789472E+03  0.85835338673E+02 0.  0.
          5    1    4    4  502    0 -0.11162459356E+02  0.70944741384E+02 -0.40220713562E+02  0.82447271806E+02  0.47000000000E+01 0. -1.
         -5    1    3    3    0  503 -0.20453508802E+02 -0.11369493307E+03  0.94453399398E+01  0.11600081152E+03  0.47000000000E+01 0.  1.
          5    1    3    3  503    0 -0.12878691645E+02 -0.36120326660E+02 -0.89560931143E+02  0.97538654305E+02  0.47000000000E+01 0.  1.
         -5    1    4    4    0  502  0.44494659804E+02  0.78870518344E+02  0.24999547366E+02  0.94060622917E+02  0.47000000000E+01 0.  1.
<mgrwt>
<rscale>  0 0.19217083E+03</rscale>
<asrwt>0</asrwt>
<pdfrwt beam="1">  1        2 0.37337239E-01 0.19794089E+03</pdfrwt>
<pdfrwt beam="2">  1       -2 0.22670047E-01 0.19794089E+03</pdfrwt>
<totfact> 0.22974378E+03</totfact>
</mgrwt>
</event>
<event>
 8    1  0.3551276E-004  0.1356999E+03  0.7546771E-02  0.1230641E+00
          2   -1    0    0  501    0  0.00000000000E+00  0.00000000000E+00  0.21025613744E+02  0.21025613744E+02  0.00000000000E+00 0. -1.
         -2   -1    0    0    0  501 -0.00000000000E+00 -0.00000000000E+00 -0.70851206163E+03  0.70851206163E+03  0.00000000000E+00 0.  1.
         25    2    1    2    0    0 -0.22037300455E+01  0.52769697664E+02 -0.34524508845E+03  0.37095637212E+03  0.12499984599E+03 0.  0.
         23    2    1    2    0    0  0.22037300455E+01 -0.52769697664E+02 -0.34224135943E+03  0.35858130325E+03  0.93069358648E+02 0.  0.
          5    1    3    3  502    0  0.29852615490E+02  0.63247433163E+02 -0.32244642790E+03  0.32997758306E+03  0.47000000000E+01 0.  1.
         -5    1    4    4    0  503  0.35247264567E+00 -0.79384404407E+02 -0.26811016786E+03  0.27965543087E+03  0.47000000000E+01 0.  1.
          5    1    4    4  503    0  0.18512573999E+01  0.26614706743E+02 -0.74131191569E+02  0.78925872389E+02  0.47000000000E+01 0. -1.
         -5    1    3    3    0  502 -0.32056345536E+02 -0.10477735498E+02 -0.22798660552E+02  0.40978789066E+02  0.47000000000E+01 0.  1.
<mgrwt>
<rscale>  0 0.12787686E+03</rscale>
<asrwt>0</asrwt>
<pdfrwt beam="1">  1        2 0.32347098E-02 0.13569989E+03</pdfrwt>
<pdfrwt beam="2">  1       -2 0.10900186E+00 0.13569989E+03</pdfrwt>
<totfact> 0.18980335E+03</totfact>
</mgrwt>
</event>
<event>
 8    1  0.3551276E-004  0.1294821E+03  0.7546771E-02  0.1242041E+00
         -1   -1    0    0    0  501 -0.00000000000E+00  0.00000000000E+00  0.48130548516E+02  0.48130548516E+02  0.00000000000E+00 0.  1.
          1   -1    0    0  501    0  0.00000000000E+00 -0.00000000000E+00 -0.36771230012E+03  0.36771230012E+03  0.00000000000E+00 0. -1.
         25    2    1    2    0    0  0.31462956336E+02  0.12299597556E+02 -0.28373746247E+03  0.31188548981E+03  0.12499765368E+03 0.  0.
         23    2    1    2    0    0 -0.31462956336E+02 -0.12299597556E+02 -0.35844289133E+02  0.10395735882E+03  0.91548466229E+02 0.  0.
          5    1    3    3  502    0  0.74876338392E+02  0.65109713797E+01 -0.11476599786E+03  0.13726683162E+03  0.47000000000E+01 0. -1.
         -5    1    4    4    0  503  0.24995866851E+02  0.11239423189E+02  0.75482561081E+01  0.28812916610E+02  0.47000000000E+01 0.  1.
          5    1    4    4  503    0 -0.56458823187E+02 -0.23539020745E+02 -0.43392545241E+02  0.75144442215E+02  0.47000000000E+01 0. -1.
         -5    1    3    3    0  502 -0.43413382057E+02  0.57886261762E+01 -0.16897146461E+03  0.17461865819E+03  0.47000000000E+01 0. -1.
<mgrwt>
<rscale>  0 0.12064244E+03</rscale>
<asrwt>0</asrwt>
<pdfrwt beam="1">  1        1 0.56571123E-01 0.12948209E+03</pdfrwt>
<pdfrwt beam="2">  1       -1 0.74046998E-02 0.12948209E+03</pdfrwt>
<totfact> 0.62454570E+03</totfact>
</mgrwt>
</event>
<event>
 8    1  0.3551276E-004  0.1305649E+03  0.7546771E-02  0.1238547E+00
          1   -1    0    0  501    0  0.00000000000E+00  0.00000000000E+00  0.41032297300E+02  0.41032297300E+02  0.00000000000E+00 0. -1.
         -1   -1    0    0    0  501 -0.00000000000E+00 -0.00000000000E+00 -0.37663071258E+03  0.37663071258E+03  0.00000000000E+00 0.  1.
         25    2    1    2    0    0  0.15947855051E+01 -0.37745193771E+02 -0.25872476835E+03  0.28980284401E+03  0.12497975694E+03 0.  0.
         23    2    1    2    0    0 -0.15947855051E+01  0.37745193771E+02 -0.76873646927E+02  0.12786016587E+03  0.94928506943E+02 0.  0.
          5    1    3    3  502    0 -0.37852369374E+02  0.24643813537E+02 -0.16076990683E+03  0.16706038536E+03  0.47000000000E+01 0. -1.
         -5    1    4    4    0  503 -0.84512503602E+01  0.67381213208E+02 -0.67056583683E+02  0.95552744289E+02  0.47000000000E+01 0.  1.
          5    1    4    4  503    0  0.68564648551E+01 -0.29636019436E+02 -0.98170632438E+01  0.32307421579E+02  0.47000000000E+01 0. -1.
         -5    1    3    3    0  502  0.39447154879E+02 -0.62389007308E+02 -0.97954861519E+02  0.12274245865E+03  0.47000000000E+01 0. -1.
<mgrwt>
<rscale>  0 0.12280056E+03</rscale>
<asrwt>0</asrwt>
<pdfrwt beam="1">  1        1 0.63126613E-02 0.13056486E+03</pdfrwt>
<pdfrwt beam="2">  1       -1 0.57943185E-01 0.13056486E+03</pdfrwt>
<totfact> 0.35878862E+03</totfact>
</mgrwt>
</event>
<event>
 8    1  0.3551276E-004  0.1588823E+03  0.7546771E-02  0.1197834E+00
         -2   -1    0    0    0  501 -0.00000000000E+00  0.00000000000E+00  0.54394020212E+02  0.54394020212E+02  0.00000000000E+00 0.  1.
          2   -1    0    0  501    0  0.00000000000E+00 -0.00000000000E+00 -0.39687085116E+03  0.39687085116E+03  0.00000000000E+00 0. -1.
         25    2    1    2    0    0  0.26211266133E+02  0.94507366685E+02 -0.16480597515E+03  0.22892051181E+03  0.12499967381E+03 0.  0.
         23    2    1    2    0    0 -0.26211266133E+02 -0.94507366685E+02 -0.17767085579E+03  0.22234435956E+03  0.90837263270E+02 0.  0.
          5    1    3    3  502    0  0.27536789854E+02  0.33578755071E+02  0.90721557104E+01  0.44611675566E+02  0.47000000000E+01 0.  1.
         -5    1    4    4    0  503  0.33280212013E+02 -0.24682019171E+02 -0.51052609074E+02  0.65918384956E+02  0.47000000000E+01 0.  1.
          5    1    4    4  503    0 -0.59491478146E+02 -0.69825347514E+02 -0.12661824672E+03  0.15642597460E+03  0.47000000000E+01 0. -1.
         -5    1    3    3    0  502 -0.13255237205E+01  0.60928611614E+02 -0.17387813086E+03  0.18430883625E+03  0.47000000000E+01 0.  1.
<mgrwt>
<rscale>  0 0.15216771E+03</rscale>
<asrwt>0</asrwt>
<pdfrwt beam="1">  1        2 0.61057057E-01 0.15888232E+03</pdfrwt>
<pdfrwt beam="2">  1       -2 0.83683103E-02 0.15888232E+03</pdfrwt>
<totfact> 0.68453435E+03</totfact>
</mgrwt>
</event>
<event>
 8    1  0.3551276E-004  0.1884175E+03  0.7546771E-02  0.1164935E+00
          2   -1    0    0  501    0  0.00000000000E+00  0.00000000000E+00  0.15087098525E+03  0.15087098525E+03  0.00000000000E+00 0. -1.
         -2   -1    0    0    0  501 -0.00000000000E+00 -0.00000000000E+00 -0.25662732211E+03  0.25662732211E+03  0.00000000000E+00 0.  1.
         25    2    1    2    0    0 -0.21270230015E+02  0.13937036733E+03 -0.14205339283E+03  0.23596679399E+03  0.12499855790E+03 0.  0.
         23    2    1    2    0    0  0.21270230015E+02 -0.13937036733E+03  0.36297055970E+02  0.17153151337E+03  0.90714176576E+02 0.  0.
          5    1    4    4  502    0 -0.22777001168E+02 -0.54175490652E+01  0.16584916001E+02  0.29073889641E+02  0.47000000000E+01 0. -1.
         -5    1    3    3    0  503 -0.43196689206E+02  0.12548074062E+02 -0.13881111257E+01  0.45248480345E+02  0.47000000000E+01 0.  1.
          5    1    3    3  503    0  0.21926459191E+02  0.12682229327E+03 -0.14066528170E+03  0.19071831365E+03  0.47000000000E+01 0.  1.
         -5    1    4    4    0  502  0.44047231183E+02 -0.13395281827E+03  0.19712139969E+02  0.14245762373E+03  0.47000000000E+01 0.  1.
<mgrwt>
<rscale>  0 0.18299534E+03</rscale>
<asrwt>0</asrwt>
<pdfrwt beam="1">  1        2 0.23210921E-01 0.18841752E+03</pdfrwt>
<pdfrwt beam="2">  1       -2 0.39481126E-01 0.18841752E+03</pdfrwt>
<totfact> 0.14140647E+03</totfact>
</mgrwt>
</event>
<event>
 8    1  0.3551276E-004  0.1548636E+03  0.7546771E-02  0.1202646E+00
          2   -1    0    0  501    0  0.00000000000E+00  0.00000000000E+00  0.12706080973E+04  0.12706080973E+04  0.00000000000E+00 0. -1.
         -2   -1    0    0    0  501 -0.00000000000E+00 -0.00000000000E+00 -0.16611024383E+02  0.16611024383E+02  0.00000000000E+00 0.  1.
         25    2    1    2    0    0  0.20671159615E+02 -0.89046975080E+02  0.55362475443E+03  0.57487660700E+03  0.12500433574E+03 0.  0.
         23    2    1    2    0    0 -0.20671159615E+02  0.89046975080E+02  0.70037231854E+03  0.71234251473E+03  0.92486826645E+02 0.  0.
          5    1    3    3  502    0 -0.33396687137E+02  0.95844286577E+00  0.27545328515E+03  0.27751190897E+03  0.47000000000E+01 0.  1.
         -5    1    3    3    0  502  0.54067846752E+02 -0.90005417946E+02  0.27817146928E+03  0.29736469803E+03  0.47000000000E+01 0.  1.
          5    1    4    4  503    0  0.23975368198E+02  0.60242519690E+02  0.52579331227E+03  0.52979682585E+03  0.47000000000E+01 0. -1.
         -5    1    4    4    0  503 -0.44646527813E+02  0.28804455390E+02  0.17457900627E+03  0.18254568887E+03  0.47000000000E+01 0.  1.
<mgrwt>
<rscale>  0 0.14824551E+03</rscale>
<asrwt>0</asrwt>
<pdfrwt beam="1">  1        2 0.19547809E+00 0.15486363E+03</pdfrwt>
<pdfrwt beam="2">  1       -2 0.25555432E-02 0.15486363E+03</pdfrwt>
<totfact> 0.95767777E+03</totfact>
</mgrwt>
</event>
<event>
 8    1  0.3551276E-004  0.1271689E+03  0.7546771E-02  0.1242385E+00
         -1   -1    0    0    0  501 -0.00000000000E+00  0.00000000000E+00  0.67392250136E+02  0.67392250136E+02  0.00000000000E+00 0.  1.
          1   -1    0    0  501    0  0.00000000000E+00 -0.00000000000E+00 -0.21641577688E+03  0.21641577688E+03  0.00000000000E+00 0. -1.
         25    2    1    2    0    0  0.22883805696E+02 -0.43804896336E+01 -0.12587509233E+03  0.17893149666E+03  0.12501633644E+03 0.  0.
         23    2    1    2    0    0 -0.22883805696E+02  0.43804896336E+01 -0.23148434412E+02  0.10487653035E+03  0.99601101150E+02 0.  0.
          5    1    4    4  502    0 -0.13502242204E+02  0.43856626865E+02 -0.39645446650E+02  0.60824055312E+02  0.47000000000E+01 0. -1.
         -5    1    4    4    0  502 -0.93815634915E+01 -0.39476137231E+02  0.16497012239E+02  0.44052475039E+02  0.47000000000E+01 0.  1.
          5    1    3    3  503    0  0.74129029087E+02  0.52317581257E+01 -0.80444431214E+02  0.10961697295E+03  0.47000000000E+01 0.  1.
         -5    1    3    3    0  503 -0.51245223391E+02 -0.96122477593E+01 -0.45430661114E+02  0.69314523707E+02  0.47000000000E+01 0.  1.
<mgrwt>
<rscale>  0 0.12043260E+03</rscale>
<asrwt>0</asrwt>
<pdfrwt beam="1">  1        1 0.33294735E-01 0.12716895E+03</pdfrwt>
<pdfrwt beam="2">  1       -1 0.10368038E-01 0.12716895E+03</pdfrwt>
<totfact> 0.72217707E+03</totfact>
</mgrwt>
</event>
<event>
 8    1  0.3551276E-004  0.1867416E+03  0.7546771E-02  0.1165930E+00
         -1   -1    0    0    0  501 -0.00000000000E+00  0.00000000000E+00  0.64711708623E+02  0.64711708623E+02  0.00000000000E+00 0.  1.
          1   -1    0    0  501    0  0.00000000000E+00 -0.00000000000E+00 -0.48799591299E+03  0.48799591299E+03  0.00000000000E+00 0. -1.
         25    2    1    2    0    0 -0.72383888858E+02 -0.11835171750E+03 -0.20997018247E+03  0.28099805845E+03  0.12500349964E+03 0.  0.
         23    2    1    2    0    0  0.72383888858E+02  0.11835171750E+03 -0.21331402190E+03  0.27170956317E+03  0.95271498247E+02 0.  0.
          5    1    3    3  502    0 -0.29766597468E+02 -0.22183215863E+02  0.85935737345E+01  0.38393813309E+02  0.47000000000E+01 0. -1.
         -5    1    4    4    0  503  0.97400469945E+01  0.94174569058E+02 -0.87417339586E+02  0.12894804858E+03  0.47000000000E+01 0.  1.
          5    1    4    4  503    0  0.62643841863E+02  0.24177148440E+02 -0.12589668231E+03  0.14276151459E+03  0.47000000000E+01 0. -1.
         -5    1    3    3    0  502 -0.42617291389E+02 -0.96168501635E+02 -0.21856375621E+03  0.24260424514E+03  0.47000000000E+01 0. -1.
<mgrwt>
<rscale>  0 0.18194857E+03</rscale>
<asrwt>0</asrwt>
<pdfrwt beam="1">  1        1 0.75076296E-01 0.18674162E+03</pdfrwt>
<pdfrwt beam="2">  1       -1 0.99556473E-02 0.18674162E+03</pdfrwt>
<totfact> 0.28231656E+03</totfact>
</mgrwt>
</event>
<event>
 8    1  0.3551276E-004  0.1263047E+03  0.7546771E-02  0.1249994E+00
          1   -1    0    0  501    0  0.00000000000E+00  0.00000000000E+00  0.94352344139E+02  0.94352344139E+02  0.00000000000E+00 0. -1.
         -1   -1    0    0    0  501 -0.00000000000E+00 -0.00000000000E+00 -0.13310559008E+03  0.13310559008E+03  0.00000000000E+00 0.  1.
         25    2    1    2    0    0 -0.15135104653E+02 -0.99133665309E+01  0.76926975370E+01  0.12653876733E+03  0.12500214324E+03 0.  0.
         23    2    1    2    0    0  0.15135104653E+02  0.99133665309E+01 -0.46445943478E+02  0.10091916689E+03  0.87750249861E+02 0.  0.
          5    1    3    3  502    0 -0.45972557490E+02  0.83854149824E+01  0.51521256756E+02  0.69716003359E+02  0.47000000000E+01 0.  1.
         -5    1    4    4    0  503 -0.22696656655E+02  0.36049260728E+02 -0.27765336274E+02  0.51065559046E+02  0.47000000000E+01 0.  1.
          5    1    4    4  503    0  0.37831761308E+02 -0.26135894197E+02 -0.18680607204E+02  0.49853607840E+02  0.47000000000E+01 0. -1.
         -5    1    3    3    0  502  0.30837452837E+02 -0.18298781513E+02 -0.43828559219E+02  0.56822763973E+02  0.47000000000E+01 0.  1.
<mgrwt>
<rscale>  0 0.11591427E+03</rscale>
<asrwt>0</asrwt>
<pdfrwt beam="1">  1        1 0.14515745E-01 0.12630472E+03</pdfrwt>
<pdfrwt beam="2">  1       -1 0.20477783E-01 0.12630472E+03</pdfrwt>
<totfact> 0.71087152E+03</totfact>
</mgrwt>
</event>
<event>
 8    1  0.3551276E-004  0.1336838E+03  0.7546771E-02  0.1235838E+00
         -2   -1    0    0    0  501 -0.00000000000E+00  0.00000000000E+00  0.10905590669E+03  0.10905590669E+03  0.00000000000E+00 0.  1.
          2   -1    0    0  501    0  0.00000000000E+00 -0.00000000000E+00 -0.12738550211E+03  0.12738550211E+03  0.00000000000E+00 0. -1.
         25    2    1    2    0    0 -0.46934389426E+02 -0.65781825625E+01 -0.23411438561E+02  0.13571827179E+03  0.12500097778E+03 0.  0.
         23    2    1    2    0    0  0.46934389426E+02  0.65781825625E+01  0.50818431398E+01  0.10072313700E+03  0.88731143355E+02 0.  0.
          5    1    4    4  502    0 -0.24296775522E+02  0.14640628555E+02  0.12194066239E+01  0.28779476329E+02  0.47000000000E+01 0. -1.
         -5    1    3    3    0  503 -0.40143823190E+02 -0.58930368853E+02  0.11323248816E+02  0.72350679867E+02  0.47000000000E+01 0.  1.
          5    1    3    3  503    0 -0.67905662360E+01  0.52352186291E+02 -0.34734687376E+02  0.63367591925E+02  0.47000000000E+01 0.  1.
         -5    1    4    4    0  502  0.71231164948E+02 -0.80624459925E+01  0.38624365159E+01  0.71943660673E+02  0.47000000000E+01 0.  1.
<mgrwt>
<rscale>  0 0.12450964E+03</rscale>
<asrwt>0</asrwt>
<pdfrwt beam="1">  1        2 0.19597770E-01 0.13368378E+03</pdfrwt>
<pdfrwt beam="2">  1       -2 0.16777832E-01 0.13368378E+03</pdfrwt>
<totfact> 0.76191275E+03</totfact>
</mgrwt>
</event>
<event>
 8    1  0.3551276E-004  0.1284046E+03  0.7546771E-02  0.1245215E+00
         -2   -1    0    0    0  501 -0.00000000000E+00  0.00000000000E+00  0.27360486278E+02  0.27360486278E+02  0.00000000000E+00 0.  1.
          2   -1    0    0  501    0  0.00000000000E+00 -0.00000000000E+00 -0.45360523860E+03  0.45360523860E+03  0.00000000000E+00 0. -1.
         25    2    1    2    0    0 -0.28088410138E+02 -0.85860545080E+01 -0.22933823931E+03  0.26283789167E+03  0.12500020069E+03 0.  0.
         23    2    1    2    0    0  0.28088410138E+02  0.85860545080E+01 -0.19690651301E+03  0.21812783320E+03  0.89134155271E+02 0.  0.
          5    1    3    3  502    0  0.33314627935E+02 -0.39438641603E+02 -0.55974641289E+02  0.76292341380E+02  0.47000000000E+01 0.  1.
         -5    1    3    3    0  502 -0.61403038072E+02  0.30852587095E+02 -0.17336359802E+03  0.18654555029E+03  0.47000000000E+01 0.  1.
          5    1    4    4  503    0 -0.11479259374E+02 -0.31442508895E+02 -0.10447020406E+03  0.10980217802E+03  0.47000000000E+01 0. -1.
         -5    1    4    4    0  503  0.39567669512E+02  0.40028563403E+02 -0.92436308946E+02  0.10832565518E+03  0.47000000000E+01 0.  1.
<mgrwt>
<rscale>  0 0.11872505E+03</rscale>
<asrwt>0</asrwt>
<pdfrwt beam="1">  1        2 0.69785420E-01 0.12840455E+03</pdfrwt>
<pdfrwt beam="2">  1       -2 0.42093057E-02 0.12840455E+03</pdfrwt>
<totfact> 0.16575673E+04</totfact>
</mgrwt>
</event>
<event>
 8    1  0.3551276E-004  0.3157423E+03  0.7546771E-02  0.1078975E+00
          1   -1    0    0  501    0  0.00000000000E+00  0.00000000000E+00  0.66966838637E+03  0.66966838637E+03  0.00000000000E+00 0. -1.
         -1   -1    0    0    0  501 -0.00000000000E+00 -0.00000000000E+00 -0.19530324451E+03  0.19530324451E+03  0.00000000000E+00 0.  1.
         25    2    1    2    0    0  0.20950501994E+03 -0.20043477287E+03  0.17836675812E+02  0.31624573945E+03  0.12500707644E+03 0.  0.
         23    2    1    2    0    0 -0.20950501994E+03  0.20043477287E+03  0.45652846605E+03  0.54872589143E+03  0.92819243985E+02 0.  0.
          5    1    3    3  502    0  0.15081249717E+03 -0.20733500549E+03  0.16270893773E+02  0.25694171672E+03  0.47000000000E+01 0.  1.
         -5    1    3    3    0  502  0.58692522764E+02  0.69002326188E+01  0.15657820386E+01  0.59304022730E+02  0.47000000000E+01 0.  1.
          5    1    4    4  503    0 -0.13878262709E+03  0.95045617933E+02  0.32444065504E+03  0.36548340005E+03  0.47000000000E+01 0. -1.
         -5    1    4    4    0  503 -0.70722392846E+02  0.10538915494E+03  0.13208781102E+03  0.18324249138E+03  0.47000000000E+01 0.  1.
<mgrwt>
<rscale>  0 0.31287723E+03</rscale>
<asrwt>0</asrwt>
<pdfrwt beam="1">  1        1 0.10302590E+00 0.31574233E+03</pdfrwt>
<pdfrwt beam="2">  1       -1 0.30046653E-01 0.31574233E+03</pdfrwt>
<totfact> 0.30760658E+02</totfact>
</mgrwt>
</event>
<event>
 8    1  0.3551276E-004  0.1464290E+03  0.7546771E-02  0.1214670E+00
         -1   -1    0    0    0  501 -0.00000000000E+00  0.00000000000E+00  0.45902298571E+02  0.45902298571E+02  0.00000000000E+00 0.  1.
          1   -1    0    0  501    0  0.00000000000E+00 -0.00000000000E+00 -0.44507141381E+03  0.44507141381E+03  0.00000000000E+00 0. -1.
         25    2    1    2    0    0 -0.39261444124E+02  0.65391441828E+02 -0.12652303255E+03  0.19351883752E+03  0.12499584414E+03 0.  0.
         23    2    1    2    0    0  0.39261444124E+02 -0.65391441828E+02 -0.27264608269E+03  0.29745487486E+03  0.91246997278E+02 0.  0.
          5    1    4    4  502    0 -0.22548054583E+02 -0.44540685483E+02 -0.15425772285E+03  0.16220302860E+03  0.47000000000E+01 0. -1.
         -5    1    3    3    0  503 -0.38771412732E+02 -0.28357278409E+02 -0.22026602600E+02  0.53052982066E+02  0.47000000000E+01 0.  1.
          5    1    3    3  503    0 -0.49003139187E+00  0.93748720237E+02 -0.10449642995E+03  0.14046585545E+03  0.47000000000E+01 0.  1.
         -5    1    4    4    0  502  0.61809498706E+02 -0.20850756345E+02 -0.11838835985E+03  0.13525184626E+03  0.47000000000E+01 0.  1.
<mgrwt>
<rscale>  0 0.13900809E+03</rscale>
<asrwt>0</asrwt>
<pdfrwt beam="1">  1        1 0.68472527E-01 0.14642904E+03</pdfrwt>
<pdfrwt beam="2">  1       -1 0.70618919E-02 0.14642904E+03</pdfrwt>
<totfact> 0.53060356E+03</totfact>
</mgrwt>
</event>
<event>
 8    1  0.3551276E-004  0.1841311E+03  0.7546771E-02  0.1168827E+00
         -2   -1    0    0    0  501 -0.00000000000E+00  0.00000000000E+00  0.46514226092E+02  0.46514226092E+02  0.00000000000E+00 0.  1.
          2   -1    0    0  501    0  0.00000000000E+00 -0.00000000000E+00 -0.98184270583E+03  0.98184270583E+03  0.00000000000E+00 0. -1.
         25    2    1    2    0    0 -0.11763555225E+03  0.66639132134E+02 -0.18784398862E+03  0.26303922941E+03  0.12500150024E+03 0.  0.
         23    2    1    2    0    0  0.11763555225E+03 -0.66639132134E+02 -0.74748449111E+03  0.76531770251E+03  0.93269631893E+02 0.  0.
          5    1    3    3  502    0 -0.86876816423E+02  0.77498759723E+02 -0.60079339903E+02  0.13109254774E+03  0.47000000000E+01 0. -1.
         -5    1    4    4    0  503  0.62423151489E+02 -0.68356100005E+02 -0.28915914330E+03  0.30365162012E+03  0.47000000000E+01 0.  1.
          5    1    4    4  503    0  0.55212400759E+02  0.17169678712E+01 -0.45832534781E+03  0.46166608238E+03  0.47000000000E+01 0. -1.
         -5    1    3    3    0  502 -0.30758735825E+02 -0.10859627589E+02 -0.12776464872E+03  0.13194668167E+03  0.47000000000E+01 0. -1.
<mgrwt>
<rscale>  0 0.17894595E+03</rscale>
<asrwt>0</asrwt>
<pdfrwt beam="1">  1        2 0.15105271E+00 0.18413113E+03</pdfrwt>
<pdfrwt beam="2">  1       -2 0.71560354E-02 0.18413113E+03</pdfrwt>
<totfact> 0.30084167E+03</totfact>
</mgrwt>
</event>
<event>
 8    1  0.3551276E-004  0.1358284E+03  0.7546771E-02  0.1231236E+00
          2   -1    0    0  501    0  0.00000000000E+00  0.00000000000E+00  0.11821246879E+03  0.11821246879E+03  0.00000000000E+00 0. -1.
         -2   -1    0    0    0  501 -0.00000000000E+00 -0.00000000000E+00 -0.12912937073E+03  0.12912937073E+03  0.00000000000E+00 0.  1.
         25    2    1    2    0    0  0.18651868761E+02  0.49754506792E+02  0.20472442660E+02  0.13736258919E+03  0.12500382733E+03 0.  0.
         23    2    1    2    0    0 -0.18651868761E+02 -0.49754506792E+02 -0.31389344601E+02  0.10997925033E+03  0.91031540651E+02 0.  0.
          5    1    4    4  502    0 -0.44120744259E+02 -0.26172934517E+02  0.13295515683E+02  0.53202662645E+02  0.47000000000E+01 0. -1.
         -5    1    4    4    0  502  0.25468875498E+02 -0.23581572275E+02 -0.44684860284E+02  0.56776587681E+02  0.47000000000E+01 0.  1.
          5    1    3    3  503    0  0.50512033916E+02  0.69500240031E+02  0.39942022106E+02  0.94864134764E+02  0.47000000000E+01 0.  1.
         -5    1    3    3    0  503 -0.31860165155E+02 -0.19745733239E+02 -0.19469579446E+02  0.42498454426E+02  0.47000000000E+01 0.  1.
<mgrwt>
<rscale>  0 0.12748467E+03</rscale>
<asrwt>0</asrwt>
<pdfrwt beam="1">  1        2 0.18186534E-01 0.13582842E+03</pdfrwt>
<pdfrwt beam="2">  1       -2 0.19866057E-01 0.13582842E+03</pdfrwt>
<totfact> 0.62612021E+03</totfact>
</mgrwt>
</event>
<event>
 8    1  0.3551276E-004  0.1358442E+03  0.7546771E-02  0.1231851E+00
         -2   -1    0    0    0  501 -0.00000000000E+00  0.00000000000E+00  0.12608587407E+03  0.12608587407E+03  0.00000000000E+00 0. -1.
          2   -1    0    0  501    0  0.00000000000E+00 -0.00000000000E+00 -0.11415442185E+03  0.11415442185E+03  0.00000000000E+00 0.  1.
         25    2    1    2    0    0 -0.41259471273E+02 -0.33593901116E+02  0.41563058847E+01  0.13590774769E+03  0.12499098705E+03 0.  0.
         23    2    1    2    0    0  0.41259471273E+02  0.33593901116E+02  0.77751463289E+01  0.10433254822E+03  0.89408800219E+02 0.  0.
          5    1    4    4  502    0  0.52675441323E+02 -0.85606574186E+01  0.22355997043E+02  0.58050560529E+02  0.47000000000E+01 0. -1.
         -5    1    3    3    0  503  0.34532581674E+02 -0.45224808583E+02  0.13061142641E+02  0.58570179747E+02  0.47000000000E+01 0.  1.
          5    1    3    3  503    0 -0.75792052947E+02  0.11630907467E+02 -0.89048367568E+01  0.77337567948E+02  0.47000000000E+01 0.  1.
         -5    1    4    4    0  502 -0.11415970050E+02  0.42154558534E+02 -0.14580850714E+02  0.46281987694E+02  0.47000000000E+01 0.  1.
<mgrwt>
<rscale>  0 0.12708181E+03</rscale>
<asrwt>0</asrwt>
<pdfrwt beam="1">  1        2 0.17562219E-01 0.13584418E+03</pdfrwt>
<pdfrwt beam="2">  1       -2 0.19397827E-01 0.13584418E+03</pdfrwt>
<totfact> 0.67848543E+03</totfact>
</mgrwt>
</event>
<event>
 8    1  0.3551276E-004  0.1289912E+03  0.7546771E-02  0.1244781E+00
          1   -1    0    0  501    0  0.00000000000E+00  0.00000000000E+00  0.12698815431E+04  0.12698815431E+04  0.00000000000E+00 0. -1.
         -1   -1    0    0    0  501 -0.00000000000E+00 -0.00000000000E+00 -0.97804241591E+01  0.97804241591E+01  0.00000000000E+00 0.  1.
         25    2    1    2    0    0 -0.11540239018E+02  0.29665458059E+02  0.77319941104E+03  0.78388522860E+03  0.12500202345E+03 0.  0.
         23    2    1    2    0    0  0.11540239018E+02 -0.29665458059E+02  0.48690170792E+03  0.49577673868E+03  0.87795699896E+02 0.  0.
          5    1    3    3  502    0  0.41614680063E+02 -0.26977851327E+02  0.35884872415E+03  0.36229005352E+03  0.47000000000E+01 0. -1.
         -5    1    4    4    0  503  0.41972322738E+02  0.20912656021E+01  0.14546741873E+03  0.15148897379E+03  0.47000000000E+01 0.  1.
          5    1    4    4  503    0 -0.30432083720E+02 -0.31756723661E+02  0.34143428919E+03  0.34428776489E+03  0.47000000000E+01 0. -1.
         -5    1    3    3    0  502 -0.53154919080E+02  0.56643309386E+02  0.41435068690E+03  0.42159517508E+03  0.47000000000E+01 0. -1.
<mgrwt>
<rscale>  0 0.11898512E+03</rscale>
<asrwt>0</asrwt>
<pdfrwt beam="1">  1        1 0.19536626E+00 0.12899117E+03</pdfrwt>
<pdfrwt beam="2">  1       -1 0.15046816E-02 0.12899117E+03</pdfrwt>
<totfact> 0.10279846E+04</totfact>
</mgrwt>
</event>
<event>
 8    1  0.3551276E-004  0.1431973E+03  0.7546771E-02  0.1219626E+00
          2   -1    0    0  501    0  0.00000000000E+00  0.00000000000E+00  0.13476491984E+03  0.13476491984E+03  0.00000000000E+00 0. -1.
         -2   -1    0    0    0  501 -0.00000000000E+00 -0.00000000000E+00 -0.14528719557E+03  0.14528719557E+03  0.00000000000E+00 0.  1.
         25    2    1    2    0    0  0.69306004404E+02  0.87612272363E+01 -0.60033153488E+02  0.15527213137E+03  0.12500149565E+03 0.  0.
         23    2    1    2    0    0 -0.69306004404E+02 -0.87612272363E+01  0.49510877750E+02  0.12477998404E+03  0.90766932591E+02 0.  0.
          5    1    4    4  502    0 -0.36473858262E+02  0.26935579567E+02  0.59585480089E+02  0.75022578072E+02  0.47000000000E+01 0. -1.
         -5    1    3    3    0  503  0.66829098595E+02 -0.32739455955E+02  0.84254526770E+01  0.75040513378E+02  0.47000000000E+01 0.  1.
          5    1    3    3  503    0  0.24769058090E+01  0.41500683192E+02 -0.68458606165E+02  0.80231617993E+02  0.47000000000E+01 0.  1.
         -5    1    4    4    0  502 -0.32832146142E+02 -0.35696806804E+02 -0.10074602339E+02  0.49757405967E+02  0.47000000000E+01 0.  1.
<mgrwt>
<rscale>  0 0.13542145E+03</rscale>
<asrwt>0</asrwt>
<pdfrwt beam="1">  1        2 0.20733065E-01 0.14319726E+03</pdfrwt>
<pdfrwt beam="2">  1       -2 0.22351876E-01 0.14319726E+03</pdfrwt>
<totfact> 0.44277939E+03</totfact>
</mgrwt>
</event>
<event>
 8    1  0.3551276E-004  0.1428781E+03  0.7546771E-02  0.1220208E+00
         -4   -1    0    0    0  501 -0.00000000000E+00  0.00000000000E+00  0.70129390759E+02  0.70129390759E+02  0.00000000000E+00 0.  1.
          4   -1    0    0  501    0  0.00000000000E+00 -0.00000000000E+00 -0.23792397938E+03  0.23792397938E+03  0.00000000000E+00 0. -1.
         25    2    1    2    0    0 -0.21276155790E+02  0.65851427300E+02 -0.11005434083E+03  0.18034992919E+03  0.12500021497E+03 0.  0.
         23    2    1    2    0    0  0.21276155790E+02 -0.65851427300E+02 -0.57740247798E+02  0.12770344095E+03  0.90471804070E+02 0.  0.
          5    1    3    3  502    0 -0.24218209063E+02  0.19559349336E+02  0.23243568852E+02  0.39133659293E+02  0.47000000000E+01 0.  1.
         -5    1    3    3    0  502  0.29420532725E+01  0.46292077965E+02 -0.13329790968E+03  0.14121626990E+03  0.47000000000E+01 0.  1.
          5    1    4    4  503    0  0.42375612267E+02 -0.19357153510E+02 -0.60324736776E+02  0.76364623839E+02  0.47000000000E+01 0. -1.
         -5    1    4    4    0  503 -0.21099456477E+02 -0.46494273791E+02  0.25844889781E+01  0.51338817110E+02  0.47000000000E+01 0.  1.
<mgrwt>
<rscale>  0 0.13500796E+03</rscale>
<asrwt>0</asrwt>
<pdfrwt beam="1">  1        4 0.36603688E-01 0.14287806E+03</pdfrwt>
<pdfrwt beam="2">  1       -4 0.10789137E-01 0.14287806E+03</pdfrwt>
<totfact> 0.80705967E+02</totfact>
</mgrwt>
</event>
<event>
 8    1  0.3551276E-004  0.1804408E+03  0.7546771E-02  0.1172920E+00
          2   -1    0    0  501    0  0.00000000000E+00  0.00000000000E+00  0.13837738762E+04  0.13837738762E+04  0.00000000000E+00 0. -1.
         -2   -1    0    0    0  501 -0.00000000000E+00 -0.00000000000E+00 -0.22432415330E+02  0.22432415330E+02  0.00000000000E+00 0.  1.
         25    2    1    2    0    0 -0.43147924475E+02 -0.12276791665E+03  0.90930285907E+03  0.92703321635E+03  0.12500075980E+03 0.  0.
         23    2    1    2    0    0  0.43147924475E+02  0.12276791665E+03  0.45203860184E+03  0.47917307523E+03  0.91292024405E+02 0.  0.
          5    1    4    4  502    0  0.24855869744E+02  0.73507457127E+02  0.39028798164E+03  0.39795471995E+03  0.47000000000E+01 0. -1.
         -5    1    3    3    0  503 -0.26759553736E+02 -0.14633596513E+03  0.80987073594E+03  0.82343365692E+03  0.47000000000E+01 0. -1.
          5    1    3    3  503    0 -0.16388370739E+02  0.23568048476E+02  0.99432123130E+02  0.10359955943E+03  0.47000000000E+01 0. -1.
         -5    1    4    4    0  502  0.18292054731E+02  0.49260459527E+02  0.61750620201E+02  0.81218355279E+02  0.47000000000E+01 0.  1.
<mgrwt>
<rscale>  0 0.17481244E+03</rscale>
<asrwt>0</asrwt>
<pdfrwt beam="1">  1        2 0.21288822E+00 0.18044083E+03</pdfrwt>
<pdfrwt beam="2">  1       -2 0.34511419E-02 0.18044083E+03</pdfrwt>
<totfact> 0.53645578E+03</totfact>
</mgrwt>
</event>
<event>
 8    1  0.3551276E-004  0.1461643E+03  0.7546771E-02  0.1215946E+00
          2   -1    0    0  501    0  0.00000000000E+00  0.00000000000E+00  0.78952292523E+03  0.78952292523E+03  0.00000000000E+00 0.  1.
         -2   -1    0    0    0  501 -0.00000000000E+00 -0.00000000000E+00 -0.25742889628E+02  0.25742889628E+02  0.00000000000E+00 0. -1.
         25    2    1    2    0    0 -0.69817616643E+02  0.29415637636E+02  0.26050849905E+03  0.29871168560E+03  0.12499685478E+03 0.  0.
         23    2    1    2    0    0  0.69817616643E+02 -0.29415637636E+02  0.50327153655E+03  0.51655412926E+03  0.88352417184E+02 0.  0.
          5    1    3    3  502    0 -0.43900924992E+02 -0.38613208114E+02  0.18345546131E+03  0.19260391310E+03  0.47000000000E+01 0. -1.
         -5    1    3    3    0  502 -0.25916691652E+02  0.68028845749E+02  0.77053037741E+02  0.10610777250E+03  0.47000000000E+01 0. -1.
          5    1    4    4  503    0  0.24195717024E+02  0.10910097602E+02  0.34304605888E+02  0.43627502073E+02  0.47000000000E+01 0. -1.
         -5    1    4    4    0  503  0.45621899619E+02 -0.40325735237E+02  0.46896693066E+03  0.47292662719E+03  0.47000000000E+01 0.  1.
<mgrwt>
<rscale>  0 0.13807244E+03</rscale>
<asrwt>0</asrwt>
<pdfrwt beam="1">  1        2 0.12146505E+00 0.14616427E+03</pdfrwt>
<pdfrwt beam="2">  1       -2 0.39604452E-02 0.14616427E+03</pdfrwt>
<totfact> 0.97092198E+03</totfact>
</mgrwt>
</event>
<event>
 8    1  0.3551276E-004  0.1482197E+03  0.7546771E-02  0.1211891E+00
          4   -1    0    0  501    0  0.00000000000E+00  0.00000000000E+00  0.11439202005E+02  0.11439202005E+02  0.00000000000E+00 0. -1.
         -4   -1    0    0    0  501 -0.00000000000E+00 -0.00000000000E+00 -0.16649192829E+04  0.16649192829E+04  0.00000000000E+00 0.  1.
         25    2    1    2    0    0  0.74397091181E+02 -0.28428957259E+02 -0.10797425945E+04  0.10898684075E+04  0.12500377029E+03 0.  0.
         23    2    1    2    0    0 -0.74397091181E+02  0.28428957259E+02 -0.57373748642E+03  0.58649007739E+03  0.91938973058E+02 0.  0.
          5    1    4    4  502    0 -0.69182289283E+02  0.58275372690E+02 -0.40703279042E+03  0.41698919733E+03  0.47000000000E+01 0. -1.
         -5    1    3    3    0  503  0.73614665484E+01  0.40805311374E+02 -0.17099712689E+03  0.17601526079E+03  0.47000000000E+01 0. -1.
          5    1    3    3  503    0  0.67035624632E+02 -0.69234268634E+02 -0.90874546757E+03  0.91385314671E+03  0.47000000000E+01 0. -1.
         -5    1    4    4    0  502 -0.52148018975E+01 -0.29846415431E+02 -0.16670469601E+03  0.16950088007E+03  0.47000000000E+01 0.  1.
<mgrwt>
<rscale>  0 0.14107404E+03</rscale>
<asrwt>0</asrwt>
<pdfrwt beam="1">  1        4 0.17598764E-02 0.14821969E+03</pdfrwt>
<pdfrwt beam="2">  1       -4 0.25614154E+00 0.14821969E+03</pdfrwt>
<totfact> 0.14231200E+02</totfact>
</mgrwt>
</event>
<event>
 8    1  0.3551276E-004  0.1369863E+03  0.7546771E-02  0.1229174E+00
         -3   -1    0    0    0  501 -0.00000000000E+00  0.00000000000E+00  0.19717151860E+02  0.19717151860E+02  0.00000000000E+00 0.  1.
          3   -1    0    0  501    0  0.00000000000E+00 -0.00000000000E+00 -0.91028892892E+03  0.91028892892E+03  0.00000000000E+00 0. -1.
         25    2    1    2    0    0 -0.55474701209E+02 -0.78119867993E+01 -0.30021603015E+03  0.32999227688E+03  0.12500707352E+03 0.  0.
         23    2    1    2    0    0  0.55474701209E+02  0.78119867993E+01 -0.59035574691E+03  0.60001380390E+03  0.91423122605E+02 0.  0.
          5    1    4    4  502    0  0.44989430945E+02  0.31721179197E+02 -0.54243090572E+03  0.54523725073E+03  0.47000000000E+01 0. -1.
         -5    1    4    4    0  502  0.10485270265E+02 -0.23909192398E+02 -0.47924841191E+02  0.54776553167E+02  0.47000000000E+01 0.  1.
          5    1    3    3  503    0 -0.19277591794E+02 -0.64008823137E+02 -0.11598567412E+03  0.13395343066E+03  0.47000000000E+01 0.  1.
         -5    1    3    3    0  503 -0.36197109415E+02  0.56196836338E+02 -0.18423035603E+03  0.19603884622E+03  0.47000000000E+01 0.  1.
<mgrwt>
<rscale>  0 0.12884846E+03</rscale>
<asrwt>0</asrwt>
<pdfrwt beam="1">  1        3 0.14004443E+00 0.13698627E+03</pdfrwt>
<pdfrwt beam="2">  1       -3 0.30334083E-02 0.13698627E+03</pdfrwt>
<totfact> 0.47579183E+02</totfact>
</mgrwt>
</event>
<event>
 8    1  0.3551276E-004  0.1880618E+03  0.7546771E-02  0.1165291E+00
          1   -1    0    0  501    0  0.00000000000E+00  0.00000000000E+00  0.14524684434E+03  0.14524684434E+03  0.00000000000E+00 0. -1.
         -1   -1    0    0    0  501 -0.00000000000E+00 -0.00000000000E+00 -0.23432928853E+03  0.23432928853E+03  0.00000000000E+00 0.  1.
         25    2    1    2    0    0  0.13654617614E+03  0.33111126449E+02 -0.98099128825E+02  0.21211006700E+03  0.12500414607E+03 0.  0.
         23    2    1    2    0    0 -0.13654617614E+03 -0.33111126449E+02  0.90166846392E+01  0.16746606587E+03  0.90677327408E+02 0.  0.
          5    1    4    4  502    0 -0.77600966803E+02 -0.12845492296E+02  0.49442303775E+02  0.93024449064E+02  0.47000000000E+01 0. -1.
         -5    1    4    4    0  502 -0.58945209332E+02 -0.20265634153E+02 -0.40425619136E+02  0.74441616810E+02  0.47000000000E+01 0.  1.
          5    1    3    3  503    0  0.64291968362E+02  0.73686146778E+02 -0.81677432911E+02  0.12750058223E+03  0.47000000000E+01 0. -1.
         -5    1    3    3    0  503  0.72254207773E+02 -0.40575020330E+02 -0.16421695914E+02  0.84609484766E+02  0.47000000000E+01 0. -1.
<mgrwt>
<rscale>  0 0.18262051E+03</rscale>
<asrwt>0</asrwt>
<pdfrwt beam="1">  1        1 0.22345669E-01 0.18806180E+03</pdfrwt>
<pdfrwt beam="2">  1       -1 0.36050659E-01 0.18806180E+03</pdfrwt>
<totfact> 0.16239898E+03</totfact>
</mgrwt>
</event>
<event>
 8    1  0.3551276E-004  0.1732248E+03  0.7546771E-02  0.1180731E+00
          2   -1    0    0  501    0  0.00000000000E+00  0.00000000000E+00  0.32750776643E+03  0.32750776643E+03  0.00000000000E+00 0. -1.
         -2   -1    0    0    0  501 -0.00000000000E+00 -0.00000000000E+00 -0.85275351290E+02  0.85275351290E+02  0.00000000000E+00 0.  1.
         25    2    1    2    0    0 -0.60135100385E+02 -0.10375735358E+03  0.78033291872E+02  0.18998957328E+03  0.12500009839E+03 0.  0.
         23    2    1    2    0    0  0.60135100385E+02  0.10375735358E+03  0.16419912327E+03  0.22279354444E+03  0.91070262114E+02 0.  0.
          5    1    3    3  502    0 -0.23069732662E+02 -0.12697037991E+03  0.55317443405E+02  0.14048416098E+03  0.47000000000E+01 0.  1.
         -5    1    4    4    0  503  0.46714752872E+02  0.11181139813E+01  0.51544638584E+02  0.69731327835E+02  0.47000000000E+01 0.  1.
          5    1    4    4  503    0  0.13420347513E+02  0.10263923959E+03  0.11265448469E+03  0.15306221660E+03  0.47000000000E+01 0. -1.
         -5    1    3    3    0  502 -0.37065367723E+02  0.23213026338E+02  0.22715848468E+02  0.49505412308E+02  0.47000000000E+01 0.  1.
<mgrwt>
<rscale>  0 0.16726401E+03</rscale>
<asrwt>0</asrwt>
<pdfrwt beam="1">  1        2 0.50385810E-01 0.17322483E+03</pdfrwt>
<pdfrwt beam="2">  1       -2 0.13119285E-01 0.17322483E+03</pdfrwt>
<totfact> 0.41402075E+03</totfact>
</mgrwt>
</event>
<event>
 8    1  0.3551276E-004  0.1697168E+03  0.7546771E-02  0.1184840E+00
          1   -1    0    0  501    0  0.00000000000E+00  0.00000000000E+00  0.15075677540E+03  0.15075677540E+03  0.00000000000E+00 0. -1.
         -1   -1    0    0    0  501 -0.00000000000E+00 -0.00000000000E+00 -0.17295847970E+03  0.17295847970E+03  0.00000000000E+00 0.  1.
         25    2    1    2    0    0  0.93198983493E+02  0.67025874520E+02 -0.45747125012E+02  0.17577426392E+03  0.12500109611E+03 0.  0.
         23    2    1    2    0    0 -0.93198983493E+02 -0.67025874520E+02  0.23545420713E+02  0.14794099119E+03  0.90297462085E+02 0.  0.
          5    1    4    4  502    0 -0.50568389039E+02 -0.58180537592E+01  0.47170966253E+02  0.69557183502E+02  0.47000000000E+01 0. -1.
         -5    1    3    3    0  503 -0.63739547675E+01  0.62584762051E+02 -0.42259862045E+02  0.75930663638E+02  0.47000000000E+01 0.  1.
          5    1    3    3  503    0  0.99572938260E+02  0.44411124690E+01 -0.34872629671E+01  0.99843600279E+02  0.47000000000E+01 0.  1.
         -5    1    4    4    0  502 -0.42630594454E+02 -0.61207820761E+02 -0.23625545540E+02  0.78383807690E+02  0.47000000000E+01 0.  1.
<mgrwt>
<rscale>  0 0.16346431E+03</rscale>
<asrwt>0</asrwt>
<pdfrwt beam="1">  1        1 0.23193350E-01 0.16971680E+03</pdfrwt>
<pdfrwt beam="2">  1       -1 0.26608997E-01 0.16971680E+03</pdfrwt>
<totfact> 0.25857332E+03</totfact>
</mgrwt>
</event>
<event>
 8    1  0.3551276E-004  0.1906667E+03  0.7546771E-02  0.1162570E+00
         -1   -1    0    0    0  501 -0.00000000000E+00  0.00000000000E+00  0.55859576209E+02  0.55859576209E+02  0.00000000000E+00 0.  1.
          1   -1    0    0  501    0  0.00000000000E+00 -0.00000000000E+00 -0.59954829353E+03  0.59954829353E+03  0.00000000000E+00 0. -1.
         25    2    1    2    0    0 -0.11914858026E+03  0.80821718599E+02 -0.23541688750E+03  0.30294372176E+03  0.12500101302E+03 0.  0.
         23    2    1    2    0    0  0.11914858026E+03 -0.80821718599E+02 -0.30827182982E+03  0.35246414798E+03  0.92037601968E+02 0.  0.
          5    1    3    3  502    0 -0.61112813008E+02 -0.27719634151E+02 -0.76215897314E+02  0.10165681007E+03  0.47000000000E+01 0. -1.
         -5    1    3    3    0  502 -0.58035767256E+02  0.10854135275E+03 -0.15920099019E+03  0.20128691168E+03  0.47000000000E+01 0. -1.
          5    1    4    4  503    0  0.11685818476E+03 -0.58500411524E+02 -0.30137678125E+03  0.32852425751E+03  0.47000000000E+01 0. -1.
         -5    1    4    4    0  503  0.22903955024E+01 -0.22321307075E+02 -0.68950485681E+01  0.23939890473E+02  0.47000000000E+01 0.  1.
<mgrwt>
<rscale>  0 0.18551455E+03</rscale>
<asrwt>0</asrwt>
<pdfrwt beam="1">  1        1 0.92238190E-01 0.19066669E+03</pdfrwt>
<pdfrwt beam="2">  1       -1 0.85937818E-02 0.19066669E+03</pdfrwt>
<totfact> 0.26843873E+03</totfact>
</mgrwt>
</event>
<event>
 8    1  0.3551276E-004  0.1289935E+03  0.7546771E-02  0.1242779E+00
          1   -1    0    0  501    0  0.00000000000E+00  0.00000000000E+00  0.68092901232E+03  0.68092901232E+03  0.00000000000E+00 0. -1.
         -1   -1    0    0    0  501 -0.00000000000E+00 -0.00000000000E+00 -0.23521756310E+02  0.23521756310E+02  0.00000000000E+00 0.  1.
         25    2    1    2    0    0  0.15278935036E+02 -0.27959801142E+02  0.20883667147E+03  0.24546300619E+03  0.12499654283E+03 0.  0.
         23    2    1    2    0    0 -0.15278935036E+02  0.27959801142E+02  0.44857058453E+03  0.45898776244E+03  0.91864032248E+02 0.  0.
          5    1    3    3  502    0  0.44395252724E+02 -0.62863209435E+02  0.16506819451E+03  0.18218759673E+03  0.47000000000E+01 0. -1.
         -5    1    3    3    0  502 -0.29116317689E+02  0.34903408294E+02  0.43768476966E+02  0.63275409459E+02  0.47000000000E+01 0. -1.
          5    1    4    4  503    0  0.14678682805E+02  0.49877343227E+02  0.34370971154E+03  0.34765164879E+03  0.47000000000E+01 0. -1.
         -5    1    4    4    0  503 -0.29957617840E+02 -0.21917542085E+02  0.10486087299E+03  0.11133611365E+03  0.47000000000E+01 0.  1.
<mgrwt>
<rscale>  0 0.12019296E+03</rscale>
<asrwt>0</asrwt>
<pdfrwt beam="1">  1        1 0.10475829E+00 0.12899353E+03</pdfrwt>
<pdfrwt beam="2">  1       -1 0.36187323E-02 0.12899353E+03</pdfrwt>
<totfact> 0.80302317E+03</totfact>
</mgrwt>
</event>
<event>
 8    1  0.3551276E-004  0.1420112E+03  0.7546771E-02  0.1220539E+00
          1   -1    0    0  501    0  0.00000000000E+00  0.00000000000E+00  0.38889956334E+03  0.38889956334E+03  0.00000000000E+00 0. -1.
         -1   -1    0    0    0  501 -0.00000000000E+00 -0.00000000000E+00 -0.60384529723E+02  0.60384529723E+02  0.00000000000E+00 0.  1.
         25    2    1    2    0    0  0.55155869619E+02  0.38722676034E+02  0.54628164519E+02  0.15215592557E+03  0.12500229492E+03 0.  0.
         23    2    1    2    0    0 -0.55155869619E+02 -0.38722676034E+02  0.27388686909E+03  0.29712816748E+03  0.93431874955E+02 0.  0.
          5    1    3    3  502    0  0.25236386096E+02 -0.33486622183E+02  0.60357121024E+02  0.73643065571E+02  0.47000000000E+01 0.  1.
         -5    1    3    3    0  502  0.29919483523E+02  0.72209298217E+02 -0.57289565053E+01  0.78512860003E+02  0.47000000000E+01 0.  1.
          5    1    4    4  503    0 -0.74723964286E+02 -0.23163967062E+02  0.25085523456E+03  0.26281301131E+03  0.47000000000E+01 0. -1.
         -5    1    4    4    0  503  0.19568094668E+02 -0.15558708972E+02  0.23031634534E+02  0.34315156172E+02  0.47000000000E+01 0.  1.
<mgrwt>
<rscale>  0 0.13477381E+03</rscale>
<asrwt>0</asrwt>
<pdfrwt beam="1">  1        1 0.59830700E-01 0.14201123E+03</pdfrwt>
<pdfrwt beam="2">  1       -1 0.92899279E-02 0.14201123E+03</pdfrwt>
<totfact> 0.41535174E+03</totfact>
</mgrwt>
</event>
<event>
 8    1  0.3551276E-004  0.1554656E+03  0.7546771E-02  0.1199746E+00
          1   -1    0    0  501    0  0.00000000000E+00  0.00000000000E+00  0.11628196371E+04  0.11628196371E+04  0.00000000000E+00 0. -1.
         -1   -1    0    0    0  501 -0.00000000000E+00 -0.00000000000E+00 -0.20462492693E+02  0.20462492693E+02  0.00000000000E+00 0.  1.
         25    2    1    2    0    0 -0.80900815780E+02  0.44712728597E+02  0.79246815820E+03  0.80757373268E+03  0.12500152742E+03 0.  0.
         23    2    1    2    0    0  0.80900815780E+02 -0.44712728597E+02  0.34988898621E+03  0.37570839712E+03  0.10094714905E+03 0.  0.
          5    1    4    4  502    0  0.45413498253E+02 -0.76374433533E+02  0.23451106921E+03  0.25082458313E+03  0.47000000000E+01 0. -1.
         -5    1    4    4    0  502  0.35487317526E+02  0.31661704937E+02  0.11537791700E+03  0.12488381399E+03  0.47000000000E+01 0.  1.
          5    1    3    3  503    0  0.10527299203E+02 -0.32679967539E+02  0.14337809496E+03  0.14750651654E+03  0.47000000000E+01 0. -1.
         -5    1    3    3    0  503 -0.91428114983E+02  0.77392696135E+02  0.64909006324E+03  0.66006721614E+03  0.47000000000E+01 0. -1.
<mgrwt>
<rscale>  0 0.15059341E+03</rscale>
<asrwt>0</asrwt>
<pdfrwt beam="1">  1        1 0.17889528E+00 0.15546560E+03</pdfrwt>
<pdfrwt beam="2">  1       -1 0.31480767E-02 0.15546560E+03</pdfrwt>
<totfact> 0.42119084E+03</totfact>
</mgrwt>
</event>
<event>
 8    1  0.3551276E-004  0.1403170E+03  0.7546771E-02  0.1221008E+00
         -4   -1    0    0    0  501 -0.00000000000E+00  0.00000000000E+00  0.40161630183E+03  0.40161630183E+03  0.00000000000E+00 0. -1.
          4   -1    0    0  501    0  0.00000000000E+00 -0.00000000000E+00 -0.50131990119E+02  0.50131990119E+02  0.00000000000E+00 0.  1.
         25    2    1    2    0    0 -0.62643213486E+02  0.12030850799E+02  0.95394335789E+02  0.16967303680E+03  0.12497978456E+03 0.  0.
         23    2    1    2    0    0  0.62643213486E+02 -0.12030850799E+02  0.25608997592E+03  0.28207525515E+03  0.99576403993E+02 0.  0.
          5    1    4    4  502    0  0.34658985130E+02 -0.52383105189E+02  0.18592493410E+03  0.19630437102E+03  0.47000000000E+01 0. -1.
         -5    1    4    4    0  502  0.27984228357E+02  0.40352254390E+02  0.70165041821E+02  0.85770884132E+02  0.47000000000E+01 0.  1.
          5    1    3    3  503    0 -0.79592721550E+02  0.52944471674E+02  0.67644557154E+02  0.11720065920E+03  0.47000000000E+01 0. -1.
         -5    1    3    3    0  503  0.16949508064E+02 -0.40913620875E+02  0.27749778635E+02  0.52472377600E+02  0.47000000000E+01 0. -1.
<mgrwt>
<rscale>  0 0.13444297E+03</rscale>
<asrwt>0</asrwt>
<pdfrwt beam="1">  1        4 0.77126141E-02 0.14031700E+03</pdfrwt>
<pdfrwt beam="2">  1       -4 0.61787121E-01 0.14031700E+03</pdfrwt>
<totfact> 0.48888943E+02</totfact>
</mgrwt>
</event>
<event>
 8    1  0.3551276E-004  0.1319234E+03  0.7546771E-02  0.1238082E+00
          2   -1    0    0  501    0  0.00000000000E+00  0.00000000000E+00  0.94040247297E+03  0.94040247297E+03  0.00000000000E+00 0. -1.
         -2   -1    0    0    0  501 -0.00000000000E+00 -0.00000000000E+00 -0.15808058976E+02  0.15808058976E+02  0.00000000000E+00 0.  1.
         25    2    1    2    0    0 -0.28195781094E+01  0.42093726708E+02  0.37337430286E+03  0.39599515233E+03  0.12499583506E+03 0.  0.
         23    2    1    2    0    0  0.28195781094E+01 -0.42093726708E+02  0.55122011114E+03  0.56021537962E+03  0.90652240959E+02 0.  0.
          5    1    4    4  502    0  0.34167400442E+02 -0.48366840227E+02  0.45148692391E+03  0.45537818892E+03  0.47000000000E+01 0. -1.
         -5    1    4    4    0  502 -0.31347822333E+02  0.62731135193E+01  0.99733187228E+02  0.10483719070E+03  0.47000000000E+01 0.  1.
          5    1    3    3  503    0  0.29323797960E+02  0.77572005139E+02  0.25629524478E+03  0.26941908545E+03  0.47000000000E+01 0. -1.
         -5    1    3    3    0  503 -0.32143376069E+02 -0.35478278431E+02  0.11707905807E+03  0.12657606687E+03  0.47000000000E+01 0. -1.
<mgrwt>
<rscale>  0 0.12309169E+03</rscale>
<asrwt>0</asrwt>
<pdfrwt beam="1">  1        2 0.14467726E+00 0.13192343E+03</pdfrwt>
<pdfrwt beam="2">  1       -2 0.24320098E-02 0.13192343E+03</pdfrwt>
<totfact> 0.15801797E+04</totfact>
</mgrwt>
</event>
<event>
 8    1  0.3551276E-004  0.1952266E+03  0.7546771E-02  0.1158421E+00
         -1   -1    0    0    0  501 -0.00000000000E+00  0.00000000000E+00  0.16512100176E+03  0.16512100176E+03  0.00000000000E+00 0.  1.
          1   -1    0    0  501    0  0.00000000000E+00 -0.00000000000E+00 -0.20965677316E+03  0.20965677316E+03  0.00000000000E+00 0. -1.
         25    2    1    2    0    0 -0.10447214784E+03  0.10759523550E+03 -0.62026723132E+01  0.19532511164E+03  0.12498904638E+03 0.  0.
         23    2    1    2    0    0  0.10447214784E+03 -0.10759523550E+03 -0.38333099084E+02  0.17945266329E+03  0.90789137559E+02 0.  0.
          5    1    4    4  502    0 -0.96027761305E+01 -0.32480121206E+02 -0.24548315486E+02  0.42093721339E+02  0.47000000000E+01 0. -1.
         -5    1    3    3    0  503  0.20569084067E+02  0.21235068138E+02 -0.28892168015E+02  0.41603638192E+02  0.47000000000E+01 0. -1.
          5    1    3    3  503    0 -0.12504123191E+03  0.86360167363E+02  0.22689495702E+02  0.15372147345E+03  0.47000000000E+01 0. -1.
         -5    1    4    4    0  502  0.11407492397E+03 -0.75115114296E+02 -0.13784783598E+02  0.13735894195E+03  0.47000000000E+01 0.  1.
<mgrwt>
<rscale>  0 0.19004495E+03</rscale>
<asrwt>0</asrwt>
<pdfrwt beam="1">  1        1 0.32254888E-01 0.19522660E+03</pdfrwt>
<pdfrwt beam="2">  1       -1 0.25403231E-01 0.19522660E+03</pdfrwt>
<totfact> 0.18520447E+03</totfact>
</mgrwt>
</event>
<event>
 8    1  0.3551276E-004  0.2130637E+03  0.7546771E-02  0.1142986E+00
          1   -1    0    0  501    0  0.00000000000E+00  0.00000000000E+00  0.16848619308E+04  0.16848619308E+04  0.00000000000E+00 0. -1.
         -1   -1    0    0    0  501 -0.00000000000E+00 -0.00000000000E+00 -0.25239582962E+02  0.25239582962E+02  0.00000000000E+00 0.  1.
         25    2    1    2    0    0  0.23842920313E+02  0.17088722466E+03  0.10001687091E+04  0.10226111697E+04  0.12500091743E+03 0.  0.
         23    2    1    2    0    0 -0.23842920313E+02 -0.17088722466E+03  0.65945363881E+03  0.68749034412E+03  0.89403261225E+02 0.  0.
          5    1    4    4  502    0 -0.23689509390E+02 -0.11686106576E+03  0.28269713145E+03  0.30685087530E+03  0.47000000000E+01 0. -1.
         -5    1    3    3    0  503  0.52022725926E+02  0.57697032681E+02  0.21182235995E+03  0.22566814966E+03  0.47000000000E+01 0. -1.
          5    1    3    3  503    0 -0.28179805614E+02  0.11319019198E+03  0.78834634911E+03  0.79694302002E+03  0.47000000000E+01 0. -1.
         -5    1    4    4    0  502 -0.15341092263E+00 -0.54026158898E+02  0.37675650737E+03  0.38063946882E+03  0.47000000000E+01 0.  1.
<mgrwt>
<rscale>  0 0.20821726E+03</rscale>
<asrwt>0</asrwt>
<pdfrwt beam="1">  1        1 0.25920944E+00 0.21306374E+03</pdfrwt>
<pdfrwt beam="2">  1       -1 0.38830141E-02 0.21306374E+03</pdfrwt>
<totfact> 0.13941786E+03</totfact>
</mgrwt>
</event>
<event>
 8    1  0.3551276E-004  0.1304185E+03  0.7546771E-02  0.1240161E+00
         -1   -1    0    0    0  501 -0.00000000000E+00  0.00000000000E+00  0.70240217737E+02  0.70240217737E+02  0.00000000000E+00 0.  1.
          1   -1    0    0  501    0  0.00000000000E+00 -0.00000000000E+00 -0.19096154418E+03  0.19096154418E+03  0.00000000000E+00 0. -1.
         25    2    1    2    0    0  0.67442062074E+01  0.36559172775E+02 -0.51429426111E+02  0.14019265650E+03  0.12500775030E+03 0.  0.
         23    2    1    2    0    0 -0.67442062074E+01 -0.36559172775E+02 -0.69291900336E+02  0.12100910543E+03  0.91977055358E+02 0.  0.
          5    1    4    4  502    0 -0.43598457929E+02 -0.17716591602E+02 -0.63156328850E+02  0.78901932965E+02  0.47000000000E+01 0. -1.
         -5    1    4    4    0  502  0.36854251721E+02 -0.18842581172E+02 -0.61355714865E+01  0.42107172461E+02  0.47000000000E+01 0.  1.
          5    1    3    3  503    0 -0.46720794294E+02 -0.15202140497E+02  0.44617618782E+00  0.49358147943E+02  0.47000000000E+01 0. -1.
         -5    1    3    3    0  503  0.53465000502E+02  0.51761313271E+02 -0.51875602299E+02  0.90834508553E+02  0.47000000000E+01 0. -1.
<mgrwt>
<rscale>  0 0.12179768E+03</rscale>
<asrwt>0</asrwt>
<pdfrwt beam="1">  1        1 0.29378698E-01 0.13041854E+03</pdfrwt>
<pdfrwt beam="2">  1       -1 0.10806188E-01 0.13041854E+03</pdfrwt>
<totfact> 0.79314247E+03</totfact>
</mgrwt>
</event>
<event>
 8    1  0.3551276E-004  0.2335101E+03  0.7546771E-02  0.1127107E+00
         -3   -1    0    0    0  501 -0.00000000000E+00  0.00000000000E+00  0.17042233645E+03  0.17042233645E+03  0.00000000000E+00 0.  1.
          3   -1    0    0  501    0  0.00000000000E+00 -0.00000000000E+00 -0.29810545126E+03  0.29810545126E+03  0.00000000000E+00 0. -1.
         25    2    1    2    0    0  0.58594214437E+02 -0.18833066929E+03 -0.68508239646E+02  0.24335233654E+03  0.12500103135E+03 0.  0.
         23    2    1    2    0    0 -0.58594214437E+02  0.18833066929E+03 -0.59174875169E+02  0.22517545117E+03  0.91107601192E+02 0.  0.
          5    1    3    3  502    0  0.24573018659E+02  0.13188442771E+02 -0.15125599829E+02  0.32072449843E+02  0.47000000000E+01 0. -1.
         -5    1    3    3    0  502  0.34021195778E+02 -0.20151911206E+03 -0.53382639817E+02  0.21127988670E+03  0.47000000000E+01 0. -1.
          5    1    4    4  503    0 -0.28124569185E+02  0.83103894798E+01 -0.26150552771E+02  0.39572659443E+02  0.47000000000E+01 0. -1.
         -5    1    4    4    0  503 -0.30469645252E+02  0.18002027981E+03 -0.33024322398E+02  0.18560279172E+03  0.47000000000E+01 0.  1.
<mgrwt>
<rscale>  0 0.22933731E+03</rscale>
<asrwt>0</asrwt>
<pdfrwt beam="1">  1        3 0.45862377E-01 0.23351013E+03</pdfrwt>
<pdfrwt beam="2">  1       -3 0.26218821E-01 0.23351013E+03</pdfrwt>
<totfact> 0.16214355E+02</totfact>
</mgrwt>
</event>
<event>
 8    1  0.3551276E-004  0.1351937E+03  0.7546771E-02  0.1230243E+00
          2   -1    0    0  501    0  0.00000000000E+00  0.00000000000E+00  0.91890562557E+02  0.91890562557E+02  0.00000000000E+00 0. -1.
         -2   -1    0    0    0  501 -0.00000000000E+00 -0.00000000000E+00 -0.20038076422E+03  0.20038076422E+03  0.00000000000E+00 0.  1.
         25    2    1    2    0    0 -0.43281510066E+02  0.27867568144E+02 -0.12228533810E+03  0.18229382773E+03  0.12500978060E+03 0.  0.
         23    2    1    2    0    0  0.43281510066E+02 -0.27867568144E+02  0.13795136434E+02  0.10997749905E+03  0.96202151951E+02 0.  0.
          5    1    3    3  502    0  0.18849715665E+02  0.52627915954E+02 -0.94119356690E+02  0.10956985271E+03  0.47000000000E+01 0. -1.
         -5    1    3    3    0  502 -0.62131225731E+02 -0.24760347810E+02 -0.28165981409E+02  0.72723975024E+02  0.47000000000E+01 0. -1.
          5    1    4    4  503    0  0.22071805187E+02  0.17221249225E+02  0.43376578294E+02  0.51839690910E+02  0.47000000000E+01 0. -1.
         -5    1    4    4    0  503  0.21209704878E+02 -0.45088817368E+02 -0.29581441860E+02  0.58137808139E+02  0.47000000000E+01 0.  1.
<mgrwt>
<rscale>  0 0.12813930E+03</rscale>
<asrwt>0</asrwt>
<pdfrwt beam="1">  1        2 0.14137010E-01 0.13519370E+03</pdfrwt>
<pdfrwt beam="2">  1       -2 0.30827810E-01 0.13519370E+03</pdfrwt>
<totfact> 0.38950490E+03</totfact>
</mgrwt>
</event>
<event>
 8    1  0.3551276E-004  0.1599139E+03  0.7546771E-02  0.1196257E+00
         -1   -1    0    0    0  501 -0.00000000000E+00  0.00000000000E+00  0.26313376973E+03  0.26313376973E+03  0.00000000000E+00 0.  1.
          1   -1    0    0  501    0  0.00000000000E+00 -0.00000000000E+00 -0.84849115062E+02  0.84849115062E+02  0.00000000000E+00 0. -1.
         25    2    1    2    0    0  0.15112544876E+02  0.98564155281E+02  0.12170269310E+03  0.20095770340E+03  0.12501668420E+03 0.  0.
         23    2    1    2    0    0 -0.15112544876E+02 -0.98564155281E+02  0.56581961565E+02  0.14702518139E+03  0.92041316098E+02 0.  0.
          5    1    4    4  502    0 -0.39823098182E+02 -0.39730075274E+02 -0.69273117453E+01  0.56872099294E+02  0.47000000000E+01 0. -1.
         -5    1    3    3    0  503 -0.43086969905E+02  0.79446197647E+02  0.10217073073E+03  0.13648858382E+03  0.47000000000E+01 0.  1.
          5    1    3    3  503    0  0.58199514782E+02  0.19117957634E+02  0.19531962371E+02  0.64469119577E+02  0.47000000000E+01 0.  1.
         -5    1    4    4    0  502  0.24710553305E+02 -0.58834080007E+02  0.63509273311E+02  0.90153082096E+02  0.47000000000E+01 0.  1.
<mgrwt>
<rscale>  0 0.15348317E+03</rscale>
<asrwt>0</asrwt>
<pdfrwt beam="1">  1        1 0.13053710E-01 0.15991389E+03</pdfrwt>
<pdfrwt beam="2">  1       -1 0.40482118E-01 0.15991389E+03</pdfrwt>
<totfact> 0.26410193E+03</totfact>
</mgrwt>
</event>
<event>
 8    1  0.3551276E-004  0.1852300E+03  0.7546771E-02  0.1167427E+00
         -1   -1    0    0    0  501 -0.00000000000E+00  0.00000000000E+00  0.71158184001E+02  0.71158184001E+02  0.00000000000E+00 0.  1.
          1   -1    0    0  501    0  0.00000000000E+00 -0.00000000000E+00 -0.46233517394E+03  0.46233517394E+03  0.00000000000E+00 0. -1.
         25    2    1    2    0    0 -0.10141593246E+03  0.91654083507E+02 -0.27019660632E+03  0.32759178168E+03  0.12499802789E+03 0.  0.
         23    2    1    2    0    0  0.10141593246E+03 -0.91654083507E+02 -0.12098038362E+03  0.20590157626E+03  0.95255149500E+02 0.  0.
          5    1    3    3  502    0 -0.12599161334E+03  0.61656938415E+02 -0.17254465643E+03  0.22241675555E+03  0.47000000000E+01 0.  1.
         -5    1    3    3    0  502  0.24575680878E+02  0.29997145092E+02 -0.97651949889E+02  0.10517502613E+03  0.47000000000E+01 0.  1.
          5    1    4    4  503    0  0.35179033047E+02  0.19420853910E+01 -0.73624200201E+02  0.81755421331E+02  0.47000000000E+01 0. -1.
         -5    1    4    4    0  503  0.66236899413E+02 -0.93596168898E+02 -0.47356183420E+02  0.12414615493E+03  0.47000000000E+01 0.  1.
<mgrwt>
<rscale>  0 0.18038875E+03</rscale>
<asrwt>0</asrwt>
<pdfrwt beam="1">  1        1 0.71128487E-01 0.18523004E+03</pdfrwt>
<pdfrwt beam="2">  1       -1 0.10947413E-01 0.18523004E+03</pdfrwt>
<totfact> 0.26161552E+03</totfact>
</mgrwt>
</event>
<event>
 8    1  0.3551276E-004  0.1499299E+03  0.7546771E-02  0.1209410E+00
         -2   -1    0    0    0  501 -0.00000000000E+00  0.00000000000E+00  0.15866044199E+03  0.15866044199E+03  0.00000000000E+00 0.  1.
          2   -1    0    0  501    0  0.00000000000E+00 -0.00000000000E+00 -0.12406430142E+03  0.12406430142E+03  0.00000000000E+00 0. -1.
         25    2    1    2    0    0 -0.15983218101E+01  0.82769994058E+02 -0.11844808204E+02  0.15039708271E+03  0.12500222581E+03 0.  0.
         23    2    1    2    0    0  0.15983218101E+01 -0.82769994058E+02  0.46440948770E+02  0.13232766069E+03  0.92197730517E+02 0.  0.
          5    1    3    3  502    0 -0.25238262505E+02  0.22740427288E+02  0.50178687199E+02  0.60779006051E+02  0.47000000000E+01 0.  1.
         -5    1    4    4    0  503  0.27030493507E+02 -0.48688932180E+02  0.64973993216E+02  0.85702797449E+02  0.47000000000E+01 0.  1.
          5    1    4    4  503    0 -0.25432171697E+02 -0.34081061878E+02 -0.18533044446E+02  0.46624863243E+02  0.47000000000E+01 0. -1.
         -5    1    3    3    0  502  0.23639940694E+02  0.60029566770E+02 -0.62023495403E+02  0.89618076663E+02  0.47000000000E+01 0.  1.
<mgrwt>
<rscale>  0 0.14295304E+03</rscale>
<asrwt>0</asrwt>
<pdfrwt beam="1">  1        2 0.19086816E-01 0.14992993E+03</pdfrwt>
<pdfrwt beam="2">  1       -2 0.24409299E-01 0.14992993E+03</pdfrwt>
<totfact> 0.41867575E+03</totfact>
</mgrwt>
</event>
<event>
 8    1  0.3551276E-004  0.1271011E+03  0.7546771E-02  0.1246882E+00
         -1   -1    0    0    0  501 -0.00000000000E+00  0.00000000000E+00  0.20472252205E+02  0.20472252205E+02  0.00000000000E+00 0.  1.
          1   -1    0    0  501    0  0.00000000000E+00 -0.00000000000E+00 -0.66507721068E+03  0.66507721068E+03  0.00000000000E+00 0. -1.
         25    2    1    2    0    0 -0.34745223219E+00  0.23046065030E+02 -0.25572794786E+03  0.28557218072E+03  0.12499378085E+03 0.  0.
         23    2    1    2    0    0  0.34745223219E+00 -0.23046065030E+02 -0.38887701062E+03  0.39997728216E+03  0.90693191711E+02 0.  0.
          5    1    4    4  502    0  0.19245796943E+02 -0.49688498048E+02 -0.30826657403E+03  0.31287332613E+03  0.47000000000E+01 0. -1.
         -5    1    3    3    0  503  0.57561131453E+02  0.74615016408E+01 -0.74107403321E+02  0.94249430173E+02  0.47000000000E+01 0. -1.
          5    1    3    3  503    0 -0.57908583685E+02  0.15584563389E+02 -0.18162054453E+03  0.19132275055E+03  0.47000000000E+01 0. -1.
         -5    1    4    4    0  502 -0.18898344711E+02  0.26642433019E+02 -0.80610436586E+02  0.87103956033E+02  0.47000000000E+01 0.  1.
<mgrwt>
<rscale>  0 0.11773437E+03</rscale>
<asrwt>0</asrwt>
<pdfrwt beam="1">  1        1 0.10231955E+00 0.12710109E+03</pdfrwt>
<pdfrwt beam="2">  1       -1 0.31495779E-02 0.12710109E+03</pdfrwt>
<totfact> 0.10154737E+04</totfact>
</mgrwt>
</event>
<event>
 8    1  0.3551276E-004  0.1792941E+03  0.7546771E-02  0.1174069E+00
          2   -1    0    0  501    0  0.00000000000E+00  0.00000000000E+00  0.12516853752E+04  0.12516853752E+04  0.00000000000E+00 0. -1.
         -2   -1    0    0    0  501 -0.00000000000E+00 -0.00000000000E+00 -0.23342984866E+02  0.23342984866E+02  0.00000000000E+00 0.  1.
         25    2    1    2    0    0  0.12713322296E+03  0.18936623108E+02  0.54680311574E+03  0.57544766746E+03  0.12499967411E+03 0.  0.
         23    2    1    2    0    0 -0.12713322296E+03 -0.18936623108E+02  0.68153927456E+03  0.69958069258E+03  0.91629201562E+02 0.  0.
          5    1    4    4  502    0 -0.75678237255E+02 -0.13624022939E+02  0.58413009755E+03  0.58918831494E+03  0.47000000000E+01 0. -1.
         -5    1    4    4    0  502 -0.51454985704E+02 -0.53126001694E+01  0.97409177012E+02  0.11039237764E+03  0.47000000000E+01 0.  1.
          5    1    3    3  503    0  0.15854165548E+02 -0.37134493767E+02  0.25349338945E+03  0.25673198805E+03  0.47000000000E+01 0.  1.
         -5    1    3    3    0  503  0.11127905741E+03  0.56071116876E+02  0.29330972629E+03  0.31871567941E+03  0.47000000000E+01 0.  1.
<mgrwt>
<rscale>  0 0.17367497E+03</rscale>
<asrwt>0</asrwt>
<pdfrwt beam="1">  1        2 0.19256693E+00 0.17929409E+03</pdfrwt>
<pdfrwt beam="2">  1       -2 0.35912294E-02 0.17929409E+03</pdfrwt>
<totfact> 0.59646941E+03</totfact>
</mgrwt>
</event>
<event>
 8    1  0.3551276E-004  0.1296752E+03  0.7546771E-02  0.1242704E+00
          1   -1    0    0  501    0  0.00000000000E+00  0.00000000000E+00  0.13808321944E+03  0.13808321944E+03  0.00000000000E+00 0. -1.
         -1   -1    0    0    0  501 -0.00000000000E+00 -0.00000000000E+00 -0.94957946446E+02  0.94957946446E+02  0.00000000000E+00 0.  1.
         25    2    1    2    0    0 -0.17721845768E+02  0.29611657309E+02  0.46588009676E+01  0.12975887984E+03  0.12499899362E+03 0.  0.
         23    2    1    2    0    0  0.17721845768E+02 -0.29611657309E+02  0.38466472025E+02  0.10328228604E+03  0.89423973711E+02 0.  0.
          5    1    3    3  502    0 -0.21196504434E+01 -0.30639605737E+02  0.45552391799E+02  0.55139720314E+02  0.47000000000E+01 0.  1.
         -5    1    4    4    0  503  0.17154235724E+02 -0.60531999552E+02  0.34045244372E+02  0.71690720720E+02  0.47000000000E+01 0.  1.
          5    1    4    4  503    0  0.56761004472E+00  0.30920342243E+02  0.44212276531E+01  0.31591565323E+02  0.47000000000E+01 0. -1.
         -5    1    3    3    0  502 -0.15602195325E+02  0.60251263046E+02 -0.40893590832E+02  0.74619159528E+02  0.47000000000E+01 0.  1.
<mgrwt>
<rscale>  0 0.12023829E+03</rscale>
<asrwt>0</asrwt>
<pdfrwt beam="1">  1        1 0.21243572E-01 0.12967522E+03</pdfrwt>
<pdfrwt beam="2">  1       -1 0.14608915E-01 0.12967522E+03</pdfrwt>
<totfact> 0.74683855E+03</totfact>
</mgrwt>
</event>
<event>
 8    1  0.3551276E-004  0.1355040E+03  0.7546771E-02  0.1234362E+00
         -1   -1    0    0    0  501 -0.00000000000E+00  0.00000000000E+00  0.35337309811E+02  0.35337309811E+02  0.00000000000E+00 0.  1.
          1   -1    0    0  501    0  0.00000000000E+00 -0.00000000000E+00 -0.41163777812E+03  0.41163777812E+03  0.00000000000E+00 0. -1.
         25    2    1    2    0    0 -0.24350360039E+02  0.46348830398E+02 -0.16587508204E+03  0.21418656211E+03  0.12498074424E+03 0.  0.
         23    2    1    2    0    0  0.24350360039E+02 -0.46348830398E+02 -0.21042538627E+03  0.23278852582E+03  0.84678807598E+02 0.  0.
          5    1    4    4  502    0  0.37237873237E+02  0.12004617885E+02 -0.76216640680E+02  0.85801144342E+02  0.47000000000E+01 0. -1.
         -5    1    4    4    0  502 -0.12887513198E+02 -0.58353448283E+02 -0.13420874559E+03  0.14698738148E+03  0.47000000000E+01 0.  1.
          5    1    3    3  503    0  0.24671562588E+02  0.10001276505E+02  0.93297427519E+01  0.28598000491E+02  0.47000000000E+01 0. -1.
         -5    1    3    3    0  503 -0.49021922626E+02  0.36347553893E+02 -0.17520482480E+03  0.18558856162E+03  0.47000000000E+01 0. -1.
<mgrwt>
<rscale>  0 0.12545339E+03</rscale>
<asrwt>0</asrwt>
<pdfrwt beam="1">  1        1 0.63328889E-01 0.13550402E+03</pdfrwt>
<pdfrwt beam="2">  1       -1 0.54365092E-02 0.13550402E+03</pdfrwt>
<totfact> 0.86202813E+03</totfact>
</mgrwt>
</event>
<event>
 8    1  0.3551276E-004  0.1267760E+03  0.7546771E-02  0.1245139E+00
         -1   -1    0    0    0  501 -0.00000000000E+00  0.00000000000E+00  0.15784969410E+02  0.15784969410E+02  0.00000000000E+00 0.  1.
          1   -1    0    0  501    0  0.00000000000E+00 -0.00000000000E+00 -0.82404179366E+03  0.82404179366E+03  0.00000000000E+00 0. -1.
         25    2    1    2    0    0  0.12642435782E+00 -0.21136839620E+02 -0.52921963509E+03  0.54419259162E+03  0.12500149052E+03 0.  0.
         23    2    1    2    0    0 -0.12642435782E+00  0.21136839620E+02 -0.27903718915E+03  0.29563417145E+03  0.95346884712E+02 0.  0.
          5    1    3    3  502    0  0.55156459253E+02  0.15551075847E+01 -0.14235556796E+03  0.15274767129E+03  0.47000000000E+01 0. -1.
         -5    1    3    3    0  502 -0.55030034895E+02 -0.22691947205E+02 -0.38686406714E+03  0.39144492033E+03  0.47000000000E+01 0. -1.
          5    1    4    4  503    0 -0.57556639028E+01 -0.34804186247E+02 -0.15990457657E+03  0.16381704018E+03  0.47000000000E+01 0. -1.
         -5    1    4    4    0  503  0.56292395449E+01  0.55941025867E+02 -0.11913261258E+03  0.13181713126E+03  0.47000000000E+01 0.  1.
<mgrwt>
<rscale>  0 0.11877058E+03</rscale>
<asrwt>0</asrwt>
<pdfrwt beam="1">  1        1 0.12677566E+00 0.12677600E+03</pdfrwt>
<pdfrwt beam="2">  1       -1 0.24284568E-02 0.12677600E+03</pdfrwt>
<totfact> 0.10832689E+04</totfact>
</mgrwt>
</event>
<event>
 8    1  0.3551276E-004  0.1498243E+03  0.7546771E-02  0.1210117E+00
         -1   -1    0    0    0  501 -0.00000000000E+00  0.00000000000E+00  0.10930578576E+02  0.10930578576E+02  0.00000000000E+00 0.  1.
          1   -1    0    0  501    0  0.00000000000E+00 -0.00000000000E+00 -0.16949811962E+04  0.16949811962E+04  0.00000000000E+00 0. -1.
         25    2    1    2    0    0  0.80080290435E+02 -0.20270653936E+02 -0.90472233142E+03  0.91704405851E+03  0.12499422360E+03 0.  0.
         23    2    1    2    0    0 -0.80080290435E+02  0.20270653936E+02 -0.77932828620E+03  0.78886771627E+03  0.90199466610E+02 0.  0.
          5    1    4    4  502    0 -0.30348198313E+02  0.53484106463E+02 -0.43556881240E+03  0.43991344958E+03  0.47000000000E+01 0. -1.
         -5    1    3    3    0  503  0.23743110615E+02  0.51027399844E+02 -0.27096804698E+03  0.27679108244E+03  0.47000000000E+01 0. -1.
          5    1    3    3  503    0  0.56337179821E+02 -0.71298053780E+02 -0.63375428445E+03  0.64025297607E+03  0.47000000000E+01 0. -1.
         -5    1    4    4    0  502 -0.49732092122E+02 -0.33213452527E+02 -0.34375947380E+03  0.34895426669E+03  0.47000000000E+01 0.  1.
<mgrwt>
<rscale>  0 0.14241376E+03</rscale>
<asrwt>0</asrwt>
<pdfrwt beam="1">  1        1 0.26076625E+00 0.14982426E+03</pdfrwt>
<pdfrwt beam="2">  1       -1 0.16816281E-02 0.14982426E+03</pdfrwt>
<totfact> 0.46549512E+03</totfact>
</mgrwt>
</event>
<event>
 8    1  0.3551276E-004  0.1625019E+03  0.7546771E-02  0.1193620E+00
         -4   -1    0    0    0  501 -0.00000000000E+00  0.00000000000E+00  0.38581596253E+02  0.38581596253E+02  0.00000000000E+00 0.  1.
          4   -1    0    0  501    0  0.00000000000E+00 -0.00000000000E+00 -0.58153113671E+03  0.58153113671E+03  0.00000000000E+00 0. -1.
         25    2    1    2    0    0 -0.95823759845E+02 -0.39992706058E+02 -0.30079851394E+03  0.34188683847E+03  0.12500101936E+03 0.  0.
         23    2    1    2    0    0  0.95823759845E+02  0.39992706058E+02 -0.24215102651E+03  0.27822589449E+03  0.89391941666E+02 0.  0.
          5    1    4    4  502    0  0.22082754604E+02 -0.26752609849E+02 -0.88056019646E+02  0.94759183093E+02  0.47000000000E+01 0. -1.
         -5    1    4    4    0  502  0.73741005241E+02  0.66745315906E+02 -0.15409500687E+03  0.18346671140E+03  0.47000000000E+01 0.  1.
          5    1    3    3  503    0  0.27249541459E+02 -0.26770582440E+01 -0.96627592269E+02  0.10054196009E+03  0.47000000000E+01 0. -1.
         -5    1    3    3    0  503 -0.12307330130E+03 -0.37315647814E+02 -0.20417092167E+03  0.24134487839E+03  0.47000000000E+01 0. -1.
<mgrwt>
<rscale>  0 0.15571633E+03</rscale>
<asrwt>0</asrwt>
<pdfrwt beam="1">  1        4 0.89466329E-01 0.16250189E+03</pdfrwt>
<pdfrwt beam="2">  1       -4 0.59356301E-02 0.16250189E+03</pdfrwt>
<totfact> 0.34351907E+02</totfact>
</mgrwt>
</event>
<event>
 8    1  0.3551276E-004  0.1272815E+03  0.7546771E-02  0.1245854E+00
          1   -1    0    0  501    0  0.00000000000E+00  0.00000000000E+00  0.11136363611E+04  0.11136363611E+04  0.00000000000E+00 0. -1.
         -1   -1    0    0    0  501 -0.00000000000E+00 -0.00000000000E+00 -0.11375972213E+02  0.11375972213E+02  0.00000000000E+00 0.  1.
         25    2    1    2    0    0  0.19000665922E+02  0.14614645789E+02  0.71495723035E+03  0.72619861027E+03  0.12500386855E+03 0.  0.
         23    2    1    2    0    0 -0.19000665922E+02 -0.14614645789E+02  0.38730315850E+03  0.39881372300E+03  0.92054526754E+02 0.  0.
          5    1    3    3  502    0  0.65580517300E+02  0.13256144675E+02  0.24838249950E+03  0.25727900357E+03  0.47000000000E+01 0. -1.
         -5    1    4    4    0  503 -0.19898884665E+02 -0.45045242472E+02  0.12080455037E+03  0.13054067898E+03  0.47000000000E+01 0.  1.
          5    1    4    4  503    0  0.89821874300E+00  0.30430596683E+02  0.26649860813E+03  0.26827304402E+03  0.47000000000E+01 0. -1.
         -5    1    3    3    0  502 -0.46579851378E+02  0.13585011142E+01  0.46657473085E+03  0.46891960670E+03  0.47000000000E+01 0. -1.
<mgrwt>
<rscale>  0 0.11834419E+03</rscale>
<asrwt>0</asrwt>
<pdfrwt beam="1">  1        1 0.17132858E+00 0.12728150E+03</pdfrwt>
<pdfrwt beam="2">  1       -1 0.17501505E-02 0.12728150E+03</pdfrwt>
<totfact> 0.10579000E+04</totfact>
</mgrwt>
</event>
<event>
 8    1  0.3551276E-004  0.1350115E+03  0.7546771E-02  0.1232289E+00
          1   -1    0    0  501    0  0.00000000000E+00  0.00000000000E+00  0.38571844244E+03  0.38571844244E+03  0.00000000000E+00 0. -1.
         -1   -1    0    0    0  501 -0.00000000000E+00 -0.00000000000E+00 -0.42478093948E+02  0.42478093948E+02  0.00000000000E+00 0.  1.
         25    2    1    2    0    0 -0.28517805027E+02 -0.42282246920E+02  0.11655722564E+03  0.17836396055E+03  0.12500824760E+03 0.  0.
         23    2    1    2    0    0  0.28517805027E+02  0.42282246920E+02  0.22668312286E+03  0.24983257584E+03  0.91815162986E+02 0.  0.
          5    1    4    4  502    0  0.42307127318E+02 -0.14897255556E+02  0.11485182153E+03  0.12338902768E+03  0.47000000000E+01 0. -1.
         -5    1    4    4    0  502 -0.13789322291E+02  0.57179502476E+02  0.11183130133E+03  0.12644354816E+03  0.47000000000E+01 0.  1.
          5    1    3    3  503    0  0.13172580965E+02 -0.72699027622E+02  0.35368286284E+02  0.82046762161E+02  0.47000000000E+01 0. -1.
         -5    1    3    3    0  503 -0.41690385992E+02  0.30416780701E+02  0.81188939354E+02  0.96317198390E+02  0.47000000000E+01 0. -1.
<mgrwt>
<rscale>  0 0.12679596E+03</rscale>
<asrwt>0</asrwt>
<pdfrwt beam="1">  1        1 0.59341296E-01 0.13501154E+03</pdfrwt>
<pdfrwt beam="2">  1       -1 0.65350916E-02 0.13501154E+03</pdfrwt>
<totfact> 0.71119052E+03</totfact>
</mgrwt>
</event>
<event>
 8    1  0.3551276E-004  0.1350629E+03  0.7546771E-02  0.1233404E+00
         -1   -1    0    0    0  501 -0.00000000000E+00  0.00000000000E+00  0.74300941165E+02  0.74300941165E+02  0.00000000000E+00 0.  1.
          1   -1    0    0  501    0  0.00000000000E+00 -0.00000000000E+00 -0.20634353085E+03  0.20634353085E+03  0.00000000000E+00 0. -1.
         25    2    1    2    0    0  0.32550306189E+02  0.39463848476E+02 -0.35124105425E+02  0.13955534028E+03  0.12500028980E+03 0.  0.
         23    2    1    2    0    0 -0.32550306189E+02 -0.39463848476E+02 -0.96918484257E+02  0.14108913173E+03  0.88859623743E+02 0.  0.
          5    1    4    4  502    0 -0.39215400588E+02 -0.74810935135E+01 -0.10015858741E+03  0.10792426528E+03  0.47000000000E+01 0. -1.
         -5    1    3    3    0  503 -0.38730725166E+02 -0.18181247164E+02 -0.74683937480E+01  0.43686310504E+02  0.47000000000E+01 0.  1.
          5    1    3    3  503    0  0.71281031355E+02  0.57645095639E+02 -0.27655711677E+02  0.95869029779E+02  0.47000000000E+01 0.  1.
         -5    1    4    4    0  502  0.66650943993E+01 -0.31982754962E+02  0.32401031533E+01  0.33164866452E+02  0.47000000000E+01 0.  1.
<mgrwt>
<rscale>  0 0.12607171E+03</rscale>
<asrwt>0</asrwt>
<pdfrwt beam="1">  1        1 0.31745158E-01 0.13506291E+03</pdfrwt>
<pdfrwt beam="2">  1       -1 0.11430914E-01 0.13506291E+03</pdfrwt>
<totfact> 0.66247378E+03</totfact>
</mgrwt>
</event>
<event>
 8    1  0.3551276E-004  0.1648070E+03  0.7546771E-02  0.1190713E+00
         -1   -1    0    0    0  501 -0.00000000000E+00  0.00000000000E+00  0.19691382160E+03  0.19691382160E+03  0.00000000000E+00 0.  1.
          1   -1    0    0  501    0  0.00000000000E+00 -0.00000000000E+00 -0.11837722082E+03  0.11837722082E+03  0.00000000000E+00 0. -1.
         25    2    1    2    0    0  0.70126019679E+02 -0.81344454024E+02  0.51658123555E+02  0.17271337559E+03  0.12500707796E+03 0.  0.
         23    2    1    2    0    0 -0.70126019679E+02  0.81344454024E+02  0.26878477221E+02  0.14257766683E+03  0.89840746348E+02 0.  0.
          5    1    4    4  502    0 -0.31787613751E+02 -0.29299165208E+01 -0.20741416239E+02  0.38357960665E+02  0.47000000000E+01 0. -1.
         -5    1    4    4    0  502 -0.38338405928E+02  0.84274370545E+02  0.47619893460E+02  0.10421970616E+03  0.47000000000E+01 0.  1.
          5    1    3    3  503    0  0.35832944569E+02 -0.76775845369E+02  0.88048328915E+02  0.12228298563E+03  0.47000000000E+01 0. -1.
         -5    1    3    3    0  503  0.34293075110E+02 -0.45686086550E+01 -0.36390205361E+02  0.50430389962E+02  0.47000000000E+01 0. -1.
<mgrwt>
<rscale>  0 0.15822686E+03</rscale>
<asrwt>0</asrwt>
<pdfrwt beam="1">  1        1 0.18211880E-01 0.16480700E+03</pdfrwt>
<pdfrwt beam="2">  1       -1 0.30294434E-01 0.16480700E+03</pdfrwt>
<totfact> 0.28291671E+03</totfact>
</mgrwt>
</event>
<event>
 8    1  0.3551276E-004  0.1407853E+03  0.7546771E-02  0.1221716E+00
         -2   -1    0    0    0  501 -0.00000000000E+00  0.00000000000E+00  0.19144725868E+02  0.19144725868E+02  0.00000000000E+00 0.  1.
          2   -1    0    0  501    0  0.00000000000E+00 -0.00000000000E+00 -0.11562252751E+04  0.11562252751E+04  0.00000000000E+00 0. -1.
         25    2    1    2    0    0  0.46555214369E+01  0.64630701839E+02 -0.90836562429E+03  0.91921086786E+03  0.12498684207E+03 0.  0.
         23    2    1    2    0    0 -0.46555214369E+01 -0.64630701839E+02 -0.22871492498E+03  0.25615913315E+03  0.95436801539E+02 0.  0.
          5    1    3    3  502    0 -0.48824148870E+02 -0.18658361689E+00 -0.49099734112E+03  0.49344129470E+03  0.47000000000E+01 0.  1.
         -5    1    4    4    0  503  0.38680051144E+02 -0.54793322120E+02 -0.10562161788E+03  0.12520571341E+03  0.47000000000E+01 0.  1.
          5    1    4    4  503    0 -0.43335572581E+02 -0.98373797192E+01 -0.12309330709E+03  0.13095341974E+03  0.47000000000E+01 0. -1.
         -5    1    3    3    0  502  0.53479670307E+02  0.64817285456E+02 -0.41736828317E+03  0.42576957315E+03  0.47000000000E+01 0.  1.
<mgrwt>
<rscale>  0 0.13394547E+03</rscale>
<asrwt>0</asrwt>
<pdfrwt beam="1">  1        2 0.17788075E+00 0.14078534E+03</pdfrwt>
<pdfrwt beam="2">  1       -2 0.29453434E-02 0.14078534E+03</pdfrwt>
<totfact> 0.89559720E+03</totfact>
</mgrwt>
</event>
<event>
 8    1  0.3551276E-004  0.1363702E+03  0.7546771E-02  0.1230145E+00
         -1   -1    0    0    0  501 -0.00000000000E+00  0.00000000000E+00  0.62796550610E+02  0.62796550610E+02  0.00000000000E+00 0.  1.
          1   -1    0    0  501    0  0.00000000000E+00 -0.00000000000E+00 -0.32432814724E+03  0.32432814724E+03  0.00000000000E+00 0. -1.
         25    2    1    2    0    0  0.53087625003E+02 -0.12406492622E+02 -0.24349640677E+03  0.27908302463E+03  0.12499847014E+03 0.  0.
         23    2    1    2    0    0 -0.53087625003E+02  0.12406492622E+02 -0.18035189856E+02  0.10804167322E+03  0.91517856681E+02 0.  0.
          5    1    4    4  502    0 -0.53798192409E+02  0.46854930968E+02 -0.15622640388E+02  0.73183242311E+02  0.47000000000E+01 0. -1.
         -5    1    4    4    0  502  0.71056740541E+00 -0.34448438346E+02 -0.24125494683E+01  0.34858430910E+02  0.47000000000E+01 0.  1.
          5    1    3    3  503    0 -0.64313039788E+01  0.29997488990E+02 -0.17847020639E+03  0.18114887686E+03  0.47000000000E+01 0.  1.
         -5    1    3    3    0  503  0.59518928982E+02 -0.42403981611E+02 -0.65026200378E+02  0.97934147769E+02  0.47000000000E+01 0.  1.
<mgrwt>
<rscale>  0 0.12820450E+03</rscale>
<asrwt>0</asrwt>
<pdfrwt beam="1">  1        1 0.49896637E-01 0.13637021E+03</pdfrwt>
<pdfrwt beam="2">  1       -1 0.96610080E-02 0.13637021E+03</pdfrwt>
<totfact> 0.48995297E+03</totfact>
</mgrwt>
</event>
<event>
 8    1  0.3551276E-004  0.1440464E+03  0.7546771E-02  0.1218101E+00
         -1   -1    0    0    0  501 -0.00000000000E+00  0.00000000000E+00  0.18043236333E+03  0.18043236333E+03  0.00000000000E+00 0.  1.
          1   -1    0    0  501    0  0.00000000000E+00 -0.00000000000E+00 -0.10030277569E+03  0.10030277569E+03  0.00000000000E+00 0. -1.
         25    2    1    2    0    0 -0.24627812474E+02  0.67253846885E+02  0.79527796415E+02  0.16454187600E+03  0.12497899618E+03 0.  0.
         23    2    1    2    0    0  0.24627812474E+02 -0.67253846885E+02  0.60179122797E+00  0.11619326303E+03  0.91492639881E+02 0.  0.
          5    1    3    3  502    0 -0.58602405614E+02  0.92698331626E+01 -0.10318553541E+01  0.59525847126E+02  0.47000000000E+01 0. -1.
         -5    1    3    3    0  502  0.33974593140E+02  0.57984013723E+02  0.80559651769E+02  0.10501602887E+03  0.47000000000E+01 0. -1.
          5    1    4    4  503    0 -0.12180073222E+02 -0.47435613675E+02 -0.35571656753E+02  0.60711814275E+02  0.47000000000E+01 0. -1.
         -5    1    4    4    0  503  0.36807885696E+02 -0.19818233210E+02  0.36173447980E+02  0.55481448753E+02  0.47000000000E+01 0.  1.
<mgrwt>
<rscale>  0 0.13651191E+03</rscale>
<asrwt>0</asrwt>
<pdfrwt beam="1">  1        1 0.15431196E-01 0.14404638E+03</pdfrwt>
<pdfrwt beam="2">  1       -1 0.27758825E-01 0.14404638E+03</pdfrwt>
<totfact> 0.40291491E+03</totfact>
</mgrwt>
</event>
<event>
 8    1  0.3551276E-004  0.1453528E+03  0.7546771E-02  0.1216193E+00
          2   -1    0    0  501    0  0.00000000000E+00  0.00000000000E+00  0.10783551637E+04  0.10783551637E+04  0.00000000000E+00 0. -1.
         -2   -1    0    0    0  501 -0.00000000000E+00 -0.00000000000E+00 -0.18480053637E+02  0.18480053637E+02  0.00000000000E+00 0.  1.
         25    2    1    2    0    0 -0.44316734612E+02  0.59465020934E+02  0.77631841938E+03  0.78980866321E+03  0.12500949777E+03 0.  0.
         23    2    1    2    0    0  0.44316734612E+02 -0.59465020934E+02  0.28355669064E+03  0.30702655408E+03  0.91437664141E+02 0.  0.
          5    1    3    3  502    0 -0.46965651533E+02 -0.29080073348E+02  0.25066772241E+03  0.25672518409E+03  0.47000000000E+01 0.  1.
         -5    1    4    4    0  503  0.43820244511E+02 -0.35170892491E+01  0.49677174856E+02  0.66501845444E+02  0.47000000000E+01 0.  1.
          5    1    4    4  503    0  0.49649010158E+00 -0.55947931685E+02  0.23387951578E+03  0.24052470864E+03  0.47000000000E+01 0. -1.
         -5    1    3    3    0  502  0.26489169204E+01  0.88545094282E+02  0.52565069697E+03  0.53308347912E+03  0.47000000000E+01 0.  1.
<mgrwt>
<rscale>  0 0.13789277E+03</rscale>
<asrwt>0</asrwt>
<pdfrwt beam="1">  1        2 0.16590075E+00 0.14535280E+03</pdfrwt>
<pdfrwt beam="2">  1       -2 0.28430860E-02 0.14535280E+03</pdfrwt>
<totfact> 0.10465485E+04</totfact>
</mgrwt>
</event>
<event>
 8    1  0.3551276E-004  0.1399896E+03  0.7546771E-02  0.1223671E+00
         -2   -1    0    0    0  501 -0.00000000000E+00  0.00000000000E+00  0.89685429298E+02  0.89685429298E+02  0.00000000000E+00 0.  1.
          2   -1    0    0  501    0  0.00000000000E+00 -0.00000000000E+00 -0.21807248850E+03  0.21807248850E+03  0.00000000000E+00 0. -1.
         25    2    1    2    0    0 -0.56448163672E+02 -0.28043232372E+02 -0.41334665125E+01  0.14005062699E+03  0.12499709801E+03 0.  0.
         23    2    1    2    0    0  0.56448163672E+02  0.28043232372E+02 -0.12425359269E+03  0.16770729080E+03  0.93348604858E+02 0.  0.
          5    1    3    3  502    0  0.28755375933E+02 -0.46200271170E+01 -0.35507702789E+02  0.46163873894E+02  0.47000000000E+01 0.  1.
         -5    1    3    3    0  502 -0.85203539605E+02 -0.23423205255E+02  0.31374236276E+02  0.93886753099E+02  0.47000000000E+01 0.  1.
          5    1    4    4  503    0 -0.46754549819E-01 -0.30514140319E+02 -0.39338558662E+02  0.50007270901E+02  0.47000000000E+01 0. -1.
         -5    1    4    4    0  503  0.56494918221E+02  0.58557372691E+02 -0.84915034027E+02  0.11770001990E+03  0.47000000000E+01 0.  1.
<mgrwt>
<rscale>  0 0.13258390E+03</rscale>
<asrwt>0</asrwt>
<pdfrwt beam="1">  1        2 0.33549613E-01 0.13998962E+03</pdfrwt>
<pdfrwt beam="2">  1       -2 0.13797758E-01 0.13998962E+03</pdfrwt>
<totfact> 0.58229529E+03</totfact>
</mgrwt>
</event>
<event>
 8    1  0.3551276E-004  0.1846277E+03  0.7546771E-02  0.1168622E+00
         -2   -1    0    0    0  501 -0.00000000000E+00  0.00000000000E+00  0.39495984352E+02  0.39495984352E+02  0.00000000000E+00 0. -1.
          2   -1    0    0  501    0  0.00000000000E+00 -0.00000000000E+00 -0.10505942077E+04  0.10505942077E+04  0.00000000000E+00 0.  1.
         25    2    1    2    0    0  0.13208039036E+03 -0.31924207928E+02 -0.81007153435E+03  0.83084491688E+03  0.12499200205E+03 0.  0.
         23    2    1    2    0    0 -0.13208039036E+03  0.31924207928E+02 -0.20102668901E+03  0.25924527518E+03  0.91279781117E+02 0.  0.
          5    1    4    4  502    0 -0.99152373646E+01 -0.22796636903E+02 -0.13157454009E+02  0.28516787724E+02  0.47000000000E+01 0. -1.
         -5    1    3    3    0  503  0.23617348705E+02  0.42624924930E+02 -0.15078458223E+03  0.15853309946E+03  0.47000000000E+01 0. -1.
          5    1    3    3  503    0  0.10846304165E+03 -0.74549132858E+02 -0.65928695212E+03  0.67231181742E+03  0.47000000000E+01 0. -1.
         -5    1    4    4    0  502 -0.12216515299E+03  0.54720844831E+02 -0.18786923500E+03  0.23072848746E+03  0.47000000000E+01 0.  1.
<mgrwt>
<rscale>  0 0.17915633E+03</rscale>
<asrwt>0</asrwt>
<pdfrwt beam="1">  1        2 0.16162986E+00 0.18462769E+03</pdfrwt>
<pdfrwt beam="2">  1       -2 0.60763059E-02 0.18462769E+03</pdfrwt>
<totfact> 0.35170785E+03</totfact>
</mgrwt>
</event>
<event>
 8    1  0.3551276E-004  0.1380470E+03  0.7546771E-02  0.1227353E+00
         -1   -1    0    0    0  501 -0.00000000000E+00  0.00000000000E+00  0.41927113721E+02  0.41927113721E+02  0.00000000000E+00 0.  1.
          1   -1    0    0  501    0  0.00000000000E+00 -0.00000000000E+00 -0.36469756889E+03  0.36469756889E+03  0.00000000000E+00 0. -1.
         25    2    1    2    0    0  0.57108201553E+02 -0.13047463964E+02 -0.16803743815E+03  0.21747081455E+03  0.12500156622E+03 0.  0.
         23    2    1    2    0    0 -0.57108201553E+02  0.13047463964E+02 -0.15473301702E+03  0.18915386807E+03  0.91680402753E+02 0.  0.
          5    1    4    4  502    0 -0.35081810898E+02  0.27265688323E+02 -0.15621411617E+03  0.16247797176E+03  0.47000000000E+01 0. -1.
         -5    1    4    4    0  502 -0.22026390654E+02 -0.14218224359E+02  0.14810991533E+01  0.26675896309E+02  0.47000000000E+01 0.  1.
          5    1    3    3  503    0  0.17599736344E+02  0.47371954286E+02 -0.23691413208E+02  0.56010943859E+02  0.47000000000E+01 0.  1.
         -5    1    3    3    0  503  0.39508465209E+02 -0.60419418250E+02 -0.14434602495E+03  0.16145987069E+03  0.47000000000E+01 0.  1.
<mgrwt>
<rscale>  0 0.13006932E+03</rscale>
<asrwt>0</asrwt>
<pdfrwt beam="1">  1        1 0.56107317E-01 0.13804700E+03</pdfrwt>
<pdfrwt beam="2">  1       -1 0.64503253E-02 0.13804700E+03</pdfrwt>
<totfact> 0.77909530E+03</totfact>
</mgrwt>
</event>
<event>
 8    1  0.3551276E-004  0.1276463E+03  0.7546771E-02  0.1247061E+00
          2   -1    0    0  501    0  0.00000000000E+00  0.00000000000E+00  0.89550646489E+03  0.89550646489E+03  0.00000000000E+00 0. -1.
         -2   -1    0    0    0  501 -0.00000000000E+00 -0.00000000000E+00 -0.13808234872E+02  0.13808234872E+02  0.00000000000E+00 0.  1.
         25    2    1    2    0    0  0.25769413884E+02  0.18654407045E+01  0.44079580131E+03  0.45890578788E+03  0.12500416450E+03 0.  0.
         23    2    1    2    0    0 -0.25769413884E+02 -0.18654407045E+01  0.44090242871E+03  0.45040891188E+03  0.88349836990E+02 0.  0.
          5    1    3    3  502    0  0.24168426805E+02  0.59850500542E+02  0.29305379607E+03  0.30011466585E+03  0.47000000000E+01 0.  1.
         -5    1    3    3    0  502  0.16009870787E+01 -0.57985059837E+02  0.14774200523E+03  0.15879112203E+03  0.47000000000E+01 0.  1.
          5    1    4    4  503    0 -0.30984553524E+02 -0.36628351011E+02  0.15520743647E+03  0.16252112783E+03  0.47000000000E+01 0. -1.
         -5    1    4    4    0  503  0.52151396400E+01  0.34762910307E+02  0.28569499224E+03  0.28788778405E+03  0.47000000000E+01 0.  1.
<mgrwt>
<rscale>  0 0.11762846E+03</rscale>
<asrwt>0</asrwt>
<pdfrwt beam="1">  1        2 0.13777018E+00 0.12764632E+03</pdfrwt>
<pdfrwt beam="2">  1       -2 0.21243445E-02 0.12764632E+03</pdfrwt>
<totfact> 0.20468372E+04</totfact>
</mgrwt>
</event>
<event>
 8    1  0.3551276E-004  0.1512460E+03  0.7546771E-02  0.1208313E+00
         -1   -1    0    0    0  501 -0.00000000000E+00  0.00000000000E+00  0.42423348469E+02  0.42423348469E+02  0.00000000000E+00 0.  1.
          1   -1    0    0  501    0  0.00000000000E+00 -0.00000000000E+00 -0.45072044175E+03  0.45072044175E+03  0.00000000000E+00 0. -1.
         25    2    1    2    0    0  0.80237355776E+02  0.28519220297E+02 -0.19694895359E+03  0.24832285698E+03  0.12499588709E+03 0.  0.
         23    2    1    2    0    0 -0.80237355776E+02 -0.28519220297E+02 -0.21134813969E+03  0.24482093324E+03  0.89542582125E+02 0.  0.
          5    1    4    4  502    0 -0.73219398700E+02  0.52951693300E+01 -0.19049709425E+03  0.20420664064E+03  0.47000000000E+01 0. -1.
         -5    1    4    4    0  502 -0.70179570766E+01 -0.33814389627E+02 -0.20851045441E+02  0.40614292599E+02  0.47000000000E+01 0.  1.
          5    1    3    3  503    0  0.15205668492E+02  0.19940060574E+02 -0.17809096524E+03  0.17990914448E+03  0.47000000000E+01 0. -1.
         -5    1    3    3    0  503  0.65031687285E+02  0.85791597232E+01 -0.18857988354E+02  0.68413712495E+02  0.47000000000E+01 0. -1.
<mgrwt>
<rscale>  0 0.14379379E+03</rscale>
<asrwt>0</asrwt>
<pdfrwt beam="1">  1        1 0.69341605E-01 0.15124599E+03</pdfrwt>
<pdfrwt beam="2">  1       -1 0.65266691E-02 0.15124599E+03</pdfrwt>
<totfact> 0.58868067E+03</totfact>
</mgrwt>
</event>
<event>
 8    1  0.3551276E-004  0.1298337E+03  0.7546771E-02  0.1241092E+00
         -1   -1    0    0    0  501 -0.00000000000E+00  0.00000000000E+00  0.26395095783E+02  0.26395095783E+02  0.00000000000E+00 0.  1.
          1   -1    0    0  501    0  0.00000000000E+00 -0.00000000000E+00 -0.49556267478E+03  0.49556267478E+03  0.00000000000E+00 0. -1.
         25    2    1    2    0    0  0.33966507772E+02  0.88707815335E+01 -0.25477212456E+03  0.28594689073E+03  0.12499749778E+03 0.  0.
         23    2    1    2    0    0 -0.33966507772E+02 -0.88707815335E+01 -0.21439545443E+03  0.23601087983E+03  0.92213394365E+02 0.  0.
          5    1    3    3  502    0  0.75476810997E+02  0.67906767146E+01 -0.99623317682E+02  0.12525876302E+03  0.47000000000E+01 0.  1.
         -5    1    3    3    0  502 -0.41510303225E+02  0.20801048189E+01 -0.15514880688E+03  0.16068812771E+03  0.47000000000E+01 0.  1.
          5    1    4    4  503    0 -0.94731613595E+01  0.24144261335E+02 -0.18080481688E+03  0.18271605826E+03  0.47000000000E+01 0. -1.
         -5    1    4    4    0  503 -0.24493346413E+02 -0.33015042869E+02 -0.33590637556E+02  0.53294821564E+02  0.47000000000E+01 0.  1.
<mgrwt>
<rscale>  0 0.12122344E+03</rscale>
<asrwt>0</asrwt>
<pdfrwt beam="1">  1        1 0.76240412E-01 0.12983370E+03</pdfrwt>
<pdfrwt beam="2">  1       -1 0.40607839E-02 0.12983370E+03</pdfrwt>
<totfact> 0.10421739E+04</totfact>
</mgrwt>
</event>
<event>
 8    1  0.3551276E-004  0.1910625E+03  0.7546771E-02  0.1162179E+00
         -2   -1    0    0    0  501 -0.00000000000E+00  0.00000000000E+00  0.52841477902E+02  0.52841477902E+02  0.00000000000E+00 0.  1.
          2   -1    0    0  501    0  0.00000000000E+00 -0.00000000000E+00 -0.62282862838E+03  0.62282862838E+03  0.00000000000E+00 0. -1.
         25    2    1    2    0    0  0.13999035906E+03 -0.35806234712E+02 -0.28457975937E+03  0.34276892612E+03  0.12500204078E+03 0.  0.
         23    2    1    2    0    0 -0.13999035906E+03  0.35806234712E+02 -0.28540739111E+03  0.33290118015E+03  0.92121820298E+02 0.  0.
          5    1    3    3  502    0  0.98732828045E+02 -0.77246698086E+02 -0.14730437576E+03  0.19348357247E+03  0.47000000000E+01 0.  1.
         -5    1    3    3    0  502  0.41257531017E+02  0.41440463374E+02 -0.13727538361E+03  0.14928535365E+03  0.47000000000E+01 0.  1.
          5    1    4    4  503    0 -0.56176515636E+02 -0.14909478595E+02 -0.17867999789E+03  0.18795405052E+03  0.47000000000E+01 0. -1.
         -5    1    4    4    0  503 -0.83813843426E+02  0.50715713307E+02 -0.10672739321E+03  0.14494712963E+03  0.47000000000E+01 0.  1.
<mgrwt>
<rscale>  0 0.18593534E+03</rscale>
<asrwt>0</asrwt>
<pdfrwt beam="1">  1        2 0.95819786E-01 0.19106255E+03</pdfrwt>
<pdfrwt beam="2">  1       -2 0.81294584E-02 0.19106255E+03</pdfrwt>
<totfact> 0.43793717E+03</totfact>
</mgrwt>
</event>
<event>
 8    1  0.3551276E-004  0.1303758E+03  0.7546771E-02  0.1241308E+00
          2   -1    0    0  501    0  0.00000000000E+00  0.00000000000E+00  0.16920578156E+03  0.16920578156E+03  0.00000000000E+00 0.  1.
         -2   -1    0    0    0  501 -0.00000000000E+00 -0.00000000000E+00 -0.15072648649E+03  0.15072648649E+03  0.00000000000E+00 0. -1.
         25    2    1    2    0    0  0.36257761182E+02  0.75941232833E+01 -0.10179218904E+03  0.16540704103E+03  0.12500217405E+03 0.  0.
         23    2    1    2    0    0 -0.36257761182E+02 -0.75941232833E+01  0.12027148411E+03  0.15452522703E+03  0.89668946370E+02 0.  0.
          5    1    3    3  502    0 -0.38424036660E+02 -0.17822655576E+02 -0.66205952891E+02  0.78736089840E+02  0.47000000000E+01 0.  1.
         -5    1    3    3    0  502  0.74681797842E+02  0.25416778859E+02 -0.35586236148E+02  0.86670951187E+02  0.47000000000E+01 0.  1.
          5    1    4    4  503    0 -0.51532147863E+02  0.22417849240E+02  0.45764432137E+02  0.72626410326E+02  0.47000000000E+01 0. -1.
         -5    1    4    4    0  503  0.15274386681E+02 -0.30011972523E+02  0.74507051973E+02  0.81898816700E+02  0.47000000000E+01 0.  1.
<mgrwt>
<rscale>  0 0.12109120E+03</rscale>
<asrwt>0</asrwt>
<pdfrwt beam="1">  1        2 0.26031659E-01 0.13037576E+03</pdfrwt>
<pdfrwt beam="2">  1       -2 0.23188690E-01 0.13037576E+03</pdfrwt>
<totfact> 0.32098965E+03</totfact>
</mgrwt>
</event>
<event>
 8    1  0.3551276E-004  0.1591991E+03  0.7546771E-02  0.1197303E+00
         -2   -1    0    0    0  501 -0.00000000000E+00  0.00000000000E+00  0.52149821980E+03  0.52149821980E+03  0.00000000000E+00 0.  1.
          2   -1    0    0  501    0  0.00000000000E+00 -0.00000000000E+00 -0.51957894200E+02  0.51957894200E+02  0.00000000000E+00 0. -1.
         25    2    1    2    0    0  0.60895787673E+02  0.77526369056E+02  0.12122613055E+03  0.20010027744E+03  0.12500284576E+03 0.  0.
         23    2    1    2    0    0 -0.60895787673E+02 -0.77526369056E+02  0.34831419505E+03  0.37335583656E+03  0.91395663813E+02 0.  0.
          5    1    3    3  502    0 -0.20926664129E+00  0.69406717938E+02  0.11947749445E+03  0.13825446816E+03  0.47000000000E+01 0.  1.
         -5    1    4    4    0  503  0.34535806195E+01 -0.63461007001E+02  0.22002453333E+03  0.22906791983E+03  0.47000000000E+01 0.  1.
          5    1    4    4  503    0 -0.64349368292E+02 -0.14065362055E+02  0.12828966172E+03  0.14428791673E+03  0.47000000000E+01 0. -1.
         -5    1    3    3    0  502  0.61105054314E+02  0.81196511181E+01  0.17486361022E+01  0.61845809278E+02  0.47000000000E+01 0.  1.
<mgrwt>
<rscale>  0 0.15260916E+03</rscale>
<asrwt>0</asrwt>
<pdfrwt beam="1">  1        2 0.79935225E-02 0.15919908E+03</pdfrwt>
<pdfrwt beam="2">  1       -2 0.80230492E-01 0.15919908E+03</pdfrwt>
<totfact> 0.11793849E+03</totfact>
</mgrwt>
</event>
<event>
 8    1  0.3551276E-004  0.1265999E+03  0.7546771E-02  0.1247299E+00
          1   -1    0    0  501    0  0.00000000000E+00  0.00000000000E+00  0.66424289572E+02  0.66424289572E+02  0.00000000000E+00 0. -1.
         -1   -1    0    0    0  501 -0.00000000000E+00 -0.00000000000E+00 -0.19177431927E+03  0.19177431927E+03  0.00000000000E+00 0.  1.
         25    2    1    2    0    0  0.19302076909E+02 -0.54796532423E+01 -0.44211556641E+02  0.13409771445E+03  0.12499975403E+03 0.  0.
         23    2    1    2    0    0 -0.19302076909E+02  0.54796532423E+01 -0.81138473062E+02  0.12410089440E+03  0.91733218663E+02 0.  0.
          5    1    4    4  502    0 -0.39167870256E+02 -0.29378566729E+02 -0.25670948336E+02  0.55482518255E+02  0.47000000000E+01 0. -1.
         -5    1    4    4    0  502  0.19865793348E+02  0.34858219971E+02 -0.55467524726E+02  0.68618376140E+02  0.47000000000E+01 0.  1.
          5    1    3    3  503    0 -0.18807230162E+02  0.17485985660E+02  0.34676355383E+02  0.43405198116E+02  0.47000000000E+01 0.  1.
         -5    1    3    3    0  503  0.38109307070E+02 -0.22965638902E+02 -0.78887912024E+02  0.90692516334E+02  0.47000000000E+01 0.  1.
<mgrwt>
<rscale>  0 0.11748805E+03</rscale>
<asrwt>0</asrwt>
<pdfrwt beam="1">  1        1 0.10219122E-01 0.12659990E+03</pdfrwt>
<pdfrwt beam="2">  1       -1 0.29503741E-01 0.12659990E+03</pdfrwt>
<totfact> 0.61877583E+03</totfact>
</mgrwt>
</event>
<event>
 8    1  0.3551276E-004  0.1927025E+03  0.7546771E-02  0.1160731E+00
         -1   -1    0    0    0  501 -0.00000000000E+00  0.00000000000E+00  0.67607501837E+02  0.67607501837E+02  0.00000000000E+00 0.  1.
          1   -1    0    0  501    0  0.00000000000E+00 -0.00000000000E+00 -0.61007299264E+03  0.61007299264E+03  0.00000000000E+00 0. -1.
         25    2    1    2    0    0  0.12273842081E+03  0.80281352479E+02 -0.13550035779E+03  0.23557291416E+03  0.12499774169E+03 0.  0.
         23    2    1    2    0    0 -0.12273842081E+03 -0.80281352479E+02 -0.40696513301E+03  0.44210758031E+03  0.91261588766E+02 0.  0.
          5    1    3    3  502    0  0.97704107011E+02  0.10027331225E+03 -0.14521374116E+03  0.20176706941E+03  0.47000000000E+01 0.  1.
         -5    1    3    3    0  502  0.25034313794E+02 -0.19991959772E+02  0.97133833749E+01  0.33805844750E+02  0.47000000000E+01 0.  1.
          5    1    4    4  503    0 -0.23109401296E+02  0.11622081157E+02 -0.14237945968E+03  0.14478645564E+03  0.47000000000E+01 0. -1.
         -5    1    4    4    0  503 -0.99629019509E+02 -0.91903433636E+02 -0.26458567333E+03  0.29732112467E+03  0.47000000000E+01 0.  1.
<mgrwt>
<rscale>  0 0.18750490E+03</rscale>
<asrwt>0</asrwt>
<pdfrwt beam="1">  1        1 0.93857384E-01 0.19270249E+03</pdfrwt>
<pdfrwt beam="2">  1       -1 0.10401154E-01 0.19270249E+03</pdfrwt>
<totfact> 0.19556588E+03</totfact>
</mgrwt>
</event>
<event>
 8    1  0.3551276E-004  0.2060728E+03  0.7546771E-02  0.1148169E+00
          3   -1    0    0  501    0  0.00000000000E+00  0.00000000000E+00  0.65519140625E+02  0.65519140625E+02  0.00000000000E+00 0. -1.
         -3   -1    0    0    0  501 -0.00000000000E+00 -0.00000000000E+00 -0.67985059633E+03  0.67985059633E+03  0.00000000000E+00 0.  1.
         25    2    1    2    0    0 -0.13945754452E+03  0.85980558685E+02 -0.44757282033E+03  0.49273465832E+03  0.12499980328E+03 0.  0.
         23    2    1    2    0    0  0.13945754452E+03 -0.85980558685E+02 -0.16675863538E+03  0.25263507864E+03  0.95786101755E+02 0.  0.
          5    1    3    3  502    0 -0.55201236174E+02  0.29307959017E+02 -0.44054260563E+02  0.76609404192E+02  0.47000000000E+01 0.  1.
         -5    1    4    4    0  503  0.77814022505E+02 -0.92405654907E+02 -0.76575158745E+02  0.14310720490E+03  0.47000000000E+01 0.  1.
          5    1    4    4  503    0  0.61643522013E+02  0.64250962228E+01 -0.90183476632E+02  0.10952787374E+03  0.47000000000E+01 0. -1.
         -5    1    3    3    0  502 -0.84256308345E+02  0.56672599668E+02 -0.40351855977E+03  0.41612525413E+03  0.47000000000E+01 0.  1.
<mgrwt>
<rscale>  0 0.20187268E+03</rscale>
<asrwt>0</asrwt>
<pdfrwt beam="1">  1        3 0.10079867E-01 0.20607284E+03</pdfrwt>
<pdfrwt beam="2">  1       -3 0.10459240E+00 0.20607284E+03</pdfrwt>
<totfact> 0.14550105E+02</totfact>
</mgrwt>
</event>
<event>
 8    1  0.3551276E-004  0.1342741E+03  0.7546771E-02  0.1234842E+00
          3   -1    0    0  501    0  0.00000000000E+00  0.00000000000E+00  0.24594600088E+03  0.24594600088E+03  0.00000000000E+00 0. -1.
         -3   -1    0    0    0  501 -0.00000000000E+00 -0.00000000000E+00 -0.57690736629E+02  0.57690736629E+02  0.00000000000E+00 0.  1.
         25    2    1    2    0    0  0.36078858037E+02  0.33255340772E+02  0.12933834713E+03  0.18643480518E+03  0.12498770683E+03 0.  0.
         23    2    1    2    0    0 -0.36078858037E+02 -0.33255340772E+02  0.58916917123E+02  0.11720193232E+03  0.88642473625E+02 0.  0.
          5    1    3    3  502    0 -0.15101240310E+02  0.44845873329E+02  0.84622337580E+00  0.47560549908E+02  0.47000000000E+01 0. -1.
         -5    1    3    3    0  502  0.51180098347E+02 -0.11590532558E+02  0.12849212375E+03  0.13887425527E+03  0.47000000000E+01 0. -1.
          5    1    4    4  503    0 -0.49717993716E+02  0.13258991579E+02  0.22324331337E+02  0.56286281868E+02  0.47000000000E+01 0. -1.
         -5    1    4    4    0  503  0.13639135679E+02 -0.46514332351E+02  0.36592585786E+02  0.60915650457E+02  0.47000000000E+01 0.  1.
<mgrwt>
<rscale>  0 0.12514528E+03</rscale>
<asrwt>0</asrwt>
<pdfrwt beam="1">  1        3 0.37837846E-01 0.13427408E+03</pdfrwt>
<pdfrwt beam="2">  1       -3 0.88754981E-02 0.13427408E+03</pdfrwt>
<totfact> 0.14276692E+03</totfact>
</mgrwt>
</event>
<event>
 8    1  0.3551276E-004  0.1263497E+03  0.7546771E-02  0.1248538E+00
          1   -1    0    0  501    0  0.00000000000E+00  0.00000000000E+00  0.17263837826E+03  0.17263837826E+03  0.00000000000E+00 0. -1.
         -1   -1    0    0    0  501 -0.00000000000E+00 -0.00000000000E+00 -0.73677726989E+02  0.73677726989E+02  0.00000000000E+00 0.  1.
         25    2    1    2    0    0  0.10762260459E+02 -0.14939689580E+02  0.86983384709E+02  0.15339607214E+03  0.12500090063E+03 0.  0.
         23    2    1    2    0    0 -0.10762260459E+02  0.14939689580E+02  0.11977266563E+02  0.92920033109E+02  0.90286527587E+02 0.  0.
          5    1    3    3  502    0 -0.89935740739E+01  0.52671131196E+02  0.23903995492E+02  0.58724981368E+02  0.47000000000E+01 0. -1.
         -5    1    3    3    0  502  0.19755834533E+02 -0.67610820777E+02  0.63079389217E+02  0.94671090773E+02  0.47000000000E+01 0. -1.
          5    1    4    4  503    0 -0.11801528022E+02 -0.35561989434E+02  0.17999928615E+02  0.41833223475E+02  0.47000000000E+01 0. -1.
         -5    1    4    4    0  503  0.10392675629E+01  0.50501679014E+02 -0.60226620524E+01  0.51086809634E+02  0.47000000000E+01 0.  1.
<mgrwt>
<rscale>  0 0.11676117E+03</rscale>
<asrwt>0</asrwt>
<pdfrwt beam="1">  1        1 0.26559750E-01 0.12634970E+03</pdfrwt>
<pdfrwt beam="2">  1       -1 0.11335035E-01 0.12634970E+03</pdfrwt>
<totfact> 0.83379952E+03</totfact>
</mgrwt>
</event>
<event>
 8    1  0.3551276E-004  0.1308632E+03  0.7546771E-02  0.1240361E+00
          1   -1    0    0  501    0  0.00000000000E+00  0.00000000000E+00  0.11117900238E+03  0.11117900238E+03  0.00000000000E+00 0. -1.
         -1   -1    0    0    0  501 -0.00000000000E+00 -0.00000000000E+00 -0.12263060784E+03  0.12263060784E+03  0.00000000000E+00 0.  1.
         25    2    1    2    0    0  0.14686961266E+02  0.35854600699E+02 -0.30021545373E+02  0.13426269411E+03  0.12499567441E+03 0.  0.
         23    2    1    2    0    0 -0.14686961266E+02 -0.35854600699E+02  0.18569939919E+02  0.99546916110E+02  0.89796918744E+02 0.  0.
          5    1    4    4  502    0 -0.34579438304E+02 -0.43560222787E+02  0.40215975053E+02  0.68794223683E+02  0.47000000000E+01 0. -1.
         -5    1    3    3    0  503 -0.16375755285E+01 -0.44310633128E+02 -0.27278120370E+02  0.52271404350E+02  0.47000000000E+01 0.  1.
          5    1    3    3  503    0  0.16324536794E+02  0.80165233827E+02 -0.27434250036E+01  0.81991289762E+02  0.47000000000E+01 0.  1.
         -5    1    4    4    0  502  0.19892477039E+02  0.77056220880E+01 -0.21646035134E+02  0.30752692427E+02  0.47000000000E+01 0.  1.
<mgrwt>
<rscale>  0 0.12167387E+03</rscale>
<asrwt>0</asrwt>
<pdfrwt beam="1">  1        1 0.17104462E-01 0.13086320E+03</pdfrwt>
<pdfrwt beam="2">  1       -1 0.18866247E-01 0.13086320E+03</pdfrwt>
<totfact> 0.65781514E+03</totfact>
</mgrwt>
</event>
<event>
 8    1  0.3551276E-004  0.1338383E+03  0.7546771E-02  0.1234893E+00
          2   -1    0    0  501    0  0.00000000000E+00  0.00000000000E+00  0.49087422546E+02  0.49087422546E+02  0.00000000000E+00 0.  1.
         -2   -1    0    0    0  501 -0.00000000000E+00 -0.00000000000E+00 -0.30770707956E+03  0.30770707956E+03  0.00000000000E+00 0. -1.
         25    2    1    2    0    0  0.47236104028E+02  0.76772473547E+01 -0.19464705299E+03  0.23622059597E+03  0.12499001990E+03 0.  0.
         23    2    1    2    0    0 -0.47236104028E+02 -0.76772473547E+01 -0.63972604020E+02  0.12057390613E+03  0.90307159867E+02 0.  0.
          5    1    4    4  502    0 -0.21432606435E+02 -0.48822195767E+01 -0.84317691407E+02  0.87262567982E+02  0.47000000000E+01 0. -1.
         -5    1    4    4    0  502 -0.25803497593E+02 -0.27950277780E+01  0.20345087387E+02  0.33311338146E+02  0.47000000000E+01 0.  1.
          5    1    3    3  503    0 -0.20927892567E+02  0.14755526573E+02 -0.15445680971E+03  0.15663555892E+03  0.47000000000E+01 0. -1.
         -5    1    3    3    0  503  0.68163996595E+02 -0.70782792179E+01 -0.40190243282E+02  0.79585037058E+02  0.47000000000E+01 0. -1.
<mgrwt>
<rscale>  0 0.12511284E+03</rscale>
<asrwt>0</asrwt>
<pdfrwt beam="1">  1        2 0.75519111E-02 0.13383832E+03</pdfrwt>
<pdfrwt beam="2">  1       -2 0.47339551E-01 0.13383832E+03</pdfrwt>
<totfact> 0.37422124E+03</totfact>
</mgrwt>
</event>
<event>
 8    1  0.3551276E-004  0.1313833E+03  0.7546771E-02  0.1243611E+00
         -2   -1    0    0    0  501 -0.00000000000E+00  0.00000000000E+00  0.37747937802E+02  0.37747937802E+02  0.00000000000E+00 0.  1.
          2   -1    0    0  501    0  0.00000000000E+00 -0.00000000000E+00 -0.34324423302E+03  0.34324423302E+03  0.00000000000E+00 0. -1.
         25    2    1    2    0    0 -0.36390460145E+02  0.17661447423E+02 -0.22146107135E+03  0.25750063103E+03  0.12500150616E+03 0.  0.
         23    2    1    2    0    0  0.36390460145E+02 -0.17661447423E+02 -0.84035223868E+02  0.12349153979E+03  0.80944729504E+02 0.  0.
          5    1    3    3  502    0 -0.31522310970E+02  0.45307575585E+02 -0.28207898693E+02  0.62162754467E+02  0.47000000000E+01 0. -1.
         -5    1    4    4    0  503  0.77066942921E+01  0.31824210037E+02 -0.31939481461E+02  0.45982539701E+02  0.47000000000E+01 0.  1.
          5    1    4    4  503    0  0.28683765853E+02 -0.49485657460E+02 -0.52095742407E+02  0.77509000089E+02  0.47000000000E+01 0. -1.
         -5    1    3    3    0  502 -0.48681491748E+01 -0.27646128162E+02 -0.19325317265E+03  0.19533787656E+03  0.47000000000E+01 0. -1.
<mgrwt>
<rscale>  0 0.11968892E+03</rscale>
<asrwt>0</asrwt>
<pdfrwt beam="1">  1        2 0.52806803E-01 0.13138329E+03</pdfrwt>
<pdfrwt beam="2">  1       -2 0.58073753E-02 0.13138329E+03</pdfrwt>
<totfact> 0.13805455E+04</totfact>
</mgrwt>
</event>
<event>
 8    1  0.3551276E-004  0.1443109E+03  0.7546771E-02  0.1219396E+00
          1   -1    0    0  501    0  0.00000000000E+00  0.00000000000E+00  0.21814259825E+03  0.21814259825E+03  0.00000000000E+00 0. -1.
         -1   -1    0    0    0  501 -0.00000000000E+00 -0.00000000000E+00 -0.78353354351E+02  0.78353354351E+02  0.00000000000E+00 0.  1.
         25    2    1    2    0    0  0.59262146143E+02  0.41099882352E+02  0.10608088724E+03  0.17910555715E+03  0.12499777466E+03 0.  0.
         23    2    1    2    0    0 -0.59262146143E+02 -0.41099882352E+02  0.33708356652E+02  0.11739039544E+03  0.86273109017E+02 0.  0.
          5    1    4    4  502    0 -0.42410230809E+00 -0.36860880985E+02  0.43711684078E+02  0.57373388734E+02  0.47000000000E+01 0. -1.
         -5    1    3    3    0  503  0.30896331817E+02 -0.26456172864E+02 -0.96333375228E+01  0.42064279313E+02  0.47000000000E+01 0.  1.
          5    1    3    3  503    0  0.28365814326E+02  0.67556055216E+02  0.11571422477E+03  0.13704127784E+03  0.47000000000E+01 0.  1.
         -5    1    4    4    0  502 -0.58838043834E+02 -0.42390013666E+01 -0.10003327427E+02  0.60017006710E+02  0.47000000000E+01 0.  1.
<mgrwt>
<rscale>  0 0.13558482E+03</rscale>
<asrwt>0</asrwt>
<pdfrwt beam="1">  1        1 0.33560399E-01 0.14431094E+03</pdfrwt>
<pdfrwt beam="2">  1       -1 0.12054362E-01 0.14431094E+03</pdfrwt>
<totfact> 0.57208572E+03</totfact>
</mgrwt>
</event>
<event>
 8    1  0.3551276E-004  0.1510483E+03  0.7546771E-02  0.1208174E+00
         -1   -1    0    0    0  501 -0.00000000000E+00  0.00000000000E+00  0.62224381341E+02  0.62224381341E+02  0.00000000000E+00 0.  1.
          1   -1    0    0  501    0  0.00000000000E+00 -0.00000000000E+00 -0.30695567167E+03  0.30695567167E+03  0.00000000000E+00 0. -1.
         25    2    1    2    0    0  0.37954852763E+02 -0.75815354254E+02 -0.11902526391E+03  0.19230864718E+03  0.12500825390E+03 0.  0.
         23    2    1    2    0    0 -0.37954852763E+02  0.75815354254E+02 -0.12570602642E+03  0.17687140583E+03  0.91065637494E+02 0.  0.
          5    1    4    4  502    0 -0.54858037630E+02  0.21984852258E+02 -0.96265685812E+02  0.11305711073E+03  0.47000000000E+01 0. -1.
         -5    1    4    4    0  502  0.16903184868E+02  0.53830501996E+02 -0.29440340606E+02  0.63814295098E+02  0.47000000000E+01 0.  1.
          5    1    3    3  503    0  0.36863109029E+02  0.13499508432E+02 -0.89951099172E+02  0.98256886667E+02  0.47000000000E+01 0. -1.
         -5    1    3    3    0  503  0.10917437339E+01 -0.89314862686E+02 -0.29074164737E+02  0.94051760516E+02  0.47000000000E+01 0. -1.
<mgrwt>
<rscale>  0 0.14390092E+03</rscale>
<asrwt>0</asrwt>
<pdfrwt beam="1">  1        1 0.47223950E-01 0.15104834E+03</pdfrwt>
<pdfrwt beam="2">  1       -1 0.95729816E-02 0.15104834E+03</pdfrwt>
<totfact> 0.53506982E+03</totfact>
</mgrwt>
</event>
<event>
 8    1  0.3551276E-004  0.1379443E+03  0.7546771E-02  0.1228887E+00
          1   -1    0    0  501    0  0.00000000000E+00  0.00000000000E+00  0.54287833409E+02  0.54287833409E+02  0.00000000000E+00 0. -1.
         -1   -1    0    0    0  501 -0.00000000000E+00 -0.00000000000E+00 -0.27630894854E+03  0.27630894854E+03  0.00000000000E+00 0.  1.
         25    2    1    2    0    0  0.43504545093E+02  0.38874798150E+02 -0.14291387626E+03  0.19862783402E+03  0.12499898017E+03 0.  0.
         23    2    1    2    0    0 -0.43504545093E+02 -0.38874798150E+02 -0.79107238876E+02  0.13196894794E+03  0.88056530715E+02 0.  0.
          5    1    3    3  502    0  0.12547686094E+02  0.70298299046E+02 -0.30526892269E+02  0.77802804749E+02  0.47000000000E+01 0.  1.
         -5    1    4    4    0  503 -0.49284273808E+02 -0.15855384217E+02 -0.91158083861E+02  0.10493912095E+03  0.47000000000E+01 0.  1.
          5    1    4    4  503    0  0.57797287146E+01 -0.23019413933E+02  0.12050844984E+02  0.27029826982E+02  0.47000000000E+01 0. -1.
         -5    1    3    3    0  502  0.30956858999E+02 -0.31423500896E+02 -0.11238698399E+03  0.12082502927E+03  0.47000000000E+01 0.  1.
<mgrwt>
<rscale>  0 0.12904033E+03</rscale>
<asrwt>0</asrwt>
<pdfrwt beam="1">  1        1 0.83519746E-02 0.13794434E+03</pdfrwt>
<pdfrwt beam="2">  1       -1 0.42509068E-01 0.13794434E+03</pdfrwt>
<totfact> 0.43443158E+03</totfact>
</mgrwt>
</event>
<event>
 8    1  0.3551276E-004  0.1792267E+03  0.7546771E-02  0.1173127E+00
          1   -1    0    0  501    0  0.00000000000E+00  0.00000000000E+00  0.49544226559E+03  0.49544226559E+03  0.00000000000E+00 0. -1.
         -1   -1    0    0    0  501 -0.00000000000E+00 -0.00000000000E+00 -0.58882272014E+02  0.58882272014E+02  0.00000000000E+00 0.  1.
         25    2    1    2    0    0  0.11941995478E+02  0.12788296165E+03  0.20926071031E+03  0.27552181312E+03  0.12500224592E+03 0.  0.
         23    2    1    2    0    0 -0.11941995478E+02 -0.12788296165E+03  0.22729928326E+03  0.27880272449E+03  0.97822961886E+02 0.  0.
          5    1    4    4  502    0 -0.48173429453E+02 -0.10727743767E+03  0.18476991902E+03  0.21906880406E+03  0.47000000000E+01 0. -1.
         -5    1    3    3    0  503 -0.34965560465E+02  0.94583978772E+02  0.64799455302E+02  0.11995740438E+03  0.47000000000E+01 0.  1.
          5    1    3    3  503    0  0.46907555942E+02  0.33298982882E+02  0.14446125501E+03  0.15556440873E+03  0.47000000000E+01 0.  1.
         -5    1    4    4    0  502  0.36231433976E+02 -0.20605523987E+02  0.42529364246E+02  0.59733920430E+02  0.47000000000E+01 0.  1.
<mgrwt>
<rscale>  0 0.17460690E+03</rscale>
<asrwt>0</asrwt>
<pdfrwt beam="1">  1        1 0.76221884E-01 0.17922674E+03</pdfrwt>
<pdfrwt beam="2">  1       -1 0.90588114E-02 0.17922674E+03</pdfrwt>
<totfact> 0.31941345E+03</totfact>
</mgrwt>
</event>
<event>
 8    1  0.3551276E-004  0.1941309E+03  0.7546771E-02  0.1159297E+00
          1   -1    0    0  501    0  0.00000000000E+00  0.00000000000E+00  0.41189581856E+03  0.41189581856E+03  0.00000000000E+00 0. -1.
         -1   -1    0    0    0  501 -0.00000000000E+00 -0.00000000000E+00 -0.97064297804E+02  0.97064297804E+02  0.00000000000E+00 0.  1.
         25    2    1    2    0    0  0.10403964851E+01  0.14853096624E+03  0.66227402988E+02  0.20511674214E+03  0.12499711454E+03 0.  0.
         23    2    1    2    0    0 -0.10403964851E+01 -0.14853096624E+03  0.24860411777E+03  0.30384337422E+03  0.91947040903E+02 0.  0.
          5    1    4    4  502    0  0.25996598522E+02 -0.11200211540E+03  0.22428976903E+03  0.25208785667E+03  0.47000000000E+01 0. -1.
         -5    1    4    4    0  502 -0.27036995007E+02 -0.36528850841E+02  0.24314348740E+02  0.51755517555E+02  0.47000000000E+01 0.  1.
          5    1    3    3  503    0  0.53091394968E+02  0.12667053283E+03  0.44702401613E+02  0.14451475640E+03  0.47000000000E+01 0. -1.
         -5    1    3    3    0  503 -0.52050998483E+02  0.21860433412E+02  0.21525001376E+02  0.60601985745E+02  0.47000000000E+01 0. -1.
<mgrwt>
<rscale>  0 0.18907685E+03</rscale>
<asrwt>0</asrwt>
<pdfrwt beam="1">  1        1 0.63368586E-01 0.19413091E+03</pdfrwt>
<pdfrwt beam="2">  1       -1 0.14932969E-01 0.19413091E+03</pdfrwt>
<totfact> 0.18716625E+03</totfact>
</mgrwt>
</event>
<event>
 8    1  0.3551276E-004  0.1376396E+03  0.7546771E-02  0.1228181E+00
         -1   -1    0    0    0  501 -0.00000000000E+00  0.00000000000E+00  0.20206764297E+02  0.20206764297E+02  0.00000000000E+00 0.  1.
          1   -1    0    0  501    0  0.00000000000E+00 -0.00000000000E+00 -0.81156807705E+03  0.81156807705E+03  0.00000000000E+00 0. -1.
         25    2    1    2    0    0 -0.41519179606E+02  0.39946338570E+02 -0.32222606785E+03  0.35039165215E+03  0.12500047542E+03 0.  0.
         23    2    1    2    0    0  0.41519179606E+02 -0.39946338570E+02 -0.46913524491E+03  0.48138318920E+03  0.91226885225E+02 0.  0.
          5    1    3    3  502    0 -0.43098030727E+02 -0.30703042638E+02 -0.66912450372E+02  0.85437012439E+02  0.47000000000E+01 0.  1.
         -5    1    3    3    0  502  0.15788511211E+01  0.70649381207E+02 -0.25531361748E+03  0.26495463971E+03  0.47000000000E+01 0.  1.
          5    1    4    4  503    0  0.64592369138E+02 -0.22738753132E+02 -0.40695821362E+03  0.41270607298E+03  0.47000000000E+01 0. -1.
         -5    1    4    4    0  503 -0.23073189532E+02 -0.17207585437E+02 -0.62177031286E+02  0.68677116213E+02  0.47000000000E+01 0.  1.
<mgrwt>
<rscale>  0 0.12951218E+03</rscale>
<asrwt>0</asrwt>
<pdfrwt beam="1">  1        1 0.12485661E+00 0.13763964E+03</pdfrwt>
<pdfrwt beam="2">  1       -1 0.31087333E-02 0.13763964E+03</pdfrwt>
<totfact> 0.77847464E+03</totfact>
</mgrwt>
</event>
<event>
 8    1  0.3551276E-004  0.1277462E+03  0.7546771E-02  0.1240420E+00
          2   -1    0    0  501    0  0.00000000000E+00  0.00000000000E+00  0.46052974183E+03  0.46052974183E+03  0.00000000000E+00 0. -1.
         -2   -1    0    0    0  501 -0.00000000000E+00 -0.00000000000E+00 -0.61108202137E+02  0.61108202137E+02  0.00000000000E+00 0.  1.
         25    2    1    2    0    0 -0.44299012648E+01 -0.25978209928E+02  0.39651848617E+03  0.41658853438E+03  0.12499842271E+03 0.  0.
         23    2    1    2    0    0  0.44299012648E+01  0.25978209928E+02  0.29030535186E+01  0.10504940959E+03  0.10164870545E+03 0.  0.
          5    1    3    3  502    0  0.48533895911E+02  0.19768677063E+02  0.11503112242E+03  0.12649343370E+03  0.47000000000E+01 0.  1.
         -5    1    3    3    0  502 -0.52963797176E+02 -0.45746886991E+02  0.28148736375E+03  0.29009510067E+03  0.47000000000E+01 0.  1.
          5    1    4    4  503    0 -0.58160772591E+01  0.62260940569E+02  0.16250114416E+02  0.64779685811E+02  0.47000000000E+01 0. -1.
         -5    1    4    4    0  503  0.10245978524E+02 -0.36282730640E+02 -0.13347060897E+02  0.40269723779E+02  0.47000000000E+01 0.  1.
<mgrwt>
<rscale>  0 0.12163764E+03</rscale>
<asrwt>0</asrwt>
<pdfrwt beam="1">  1        2 0.70850727E-01 0.12774622E+03</pdfrwt>
<pdfrwt beam="2">  1       -2 0.94012622E-02 0.12774622E+03</pdfrwt>
<totfact> 0.48051578E+03</totfact>
</mgrwt>
</event>
<event>
 8    1  0.3551276E-004  0.2210525E+03  0.7546771E-02  0.1136256E+00
         -1   -1    0    0    0  501 -0.00000000000E+00  0.00000000000E+00  0.52670442290E+02  0.52670442290E+02  0.00000000000E+00 0.  1.
          1   -1    0    0  501    0  0.00000000000E+00 -0.00000000000E+00 -0.95976364265E+03  0.95976364265E+03  0.00000000000E+00 0. -1.
         25    2    1    2    0    0  0.72412521684E+02  0.16731270694E+03 -0.30637582463E+03  0.37779668684E+03  0.12500830160E+03 0.  0.
         23    2    1    2    0    0 -0.72412521684E+02 -0.16731270694E+03 -0.60071737573E+03  0.63463739811E+03  0.93092139114E+02 0.  0.
          5    1    3    3  502    0 -0.28975883188E+01  0.10483518443E+03 -0.82813955082E+02  0.13371257633E+03  0.47000000000E+01 0.  1.
         -5    1    3    3    0  502  0.75310110003E+02  0.62477522515E+02 -0.22356186955E+03  0.24408411051E+03  0.47000000000E+01 0.  1.
          5    1    4    4  503    0 -0.73599707233E+02 -0.10756881494E+03 -0.50607376261E+03  0.52260951967E+03  0.47000000000E+01 0. -1.
         -5    1    4    4    0  503  0.11871855492E+01 -0.59743891996E+02 -0.94643613127E+02  0.11202787843E+03  0.47000000000E+01 0.  1.
<mgrwt>
<rscale>  0 0.21684654E+03</rscale>
<asrwt>0</asrwt>
<pdfrwt beam="1">  1        1 0.14765593E+00 0.22105246E+03</pdfrwt>
<pdfrwt beam="2">  1       -1 0.81031458E-02 0.22105246E+03</pdfrwt>
<totfact> 0.14484955E+03</totfact>
</mgrwt>
</event>
<event>
 8    1  0.3551276E-004  0.1260020E+03  0.7546771E-02  0.1250163E+00
         -2   -1    0    0    0  501 -0.00000000000E+00  0.00000000000E+00  0.89830161030E+02  0.89830161030E+02  0.00000000000E+00 0.  1.
          2   -1    0    0  501    0  0.00000000000E+00 -0.00000000000E+00 -0.13016722818E+03  0.13016722818E+03  0.00000000000E+00 0. -1.
         25    2    1    2    0    0 -0.62071283952E+01  0.14581984576E+02 -0.29487065518E+02  0.12940627864E+03  0.12500134080E+03 0.  0.
         23    2    1    2    0    0  0.62071283952E+01 -0.14581984576E+02 -0.10850001629E+02  0.90591110565E+02  0.88531712177E+02 0.  0.
          5    1    3    3  502    0 -0.17238558975E+02  0.61976992577E+02  0.11611430828E+02  0.65538010729E+02  0.47000000000E+01 0. -1.
         -5    1    4    4    0  503  0.31719155905E+02 -0.40446141656E+02 -0.14934674623E+02  0.53732017757E+02  0.47000000000E+01 0.  1.
          5    1    4    4  503    0 -0.25512027510E+02  0.25864157080E+02  0.40846729947E+01  0.36859092808E+02  0.47000000000E+01 0. -1.
         -5    1    3    3    0  502  0.11031430580E+02 -0.47395008002E+02 -0.41098496346E+02  0.63868267911E+02  0.47000000000E+01 0. -1.
<mgrwt>
<rscale>  0 0.11581640E+03</rscale>
<asrwt>0</asrwt>
<pdfrwt beam="1">  1        2 0.20025727E-01 0.12600198E+03</pdfrwt>
<pdfrwt beam="2">  1       -2 0.13820025E-01 0.12600198E+03</pdfrwt>
<totfact> 0.10161719E+04</totfact>
</mgrwt>
</event>
<event>
 8    1  0.3551276E-004  0.2150032E+03  0.7546771E-02  0.1141316E+00
         -1   -1    0    0    0  501 -0.00000000000E+00  0.00000000000E+00  0.42783192567E+02  0.42783192567E+02  0.00000000000E+00 0.  1.
          1   -1    0    0  501    0  0.00000000000E+00 -0.00000000000E+00 -0.99179236767E+03  0.99179236767E+03  0.00000000000E+00 0. -1.
         25    2    1    2    0    0 -0.13386837876E+03 -0.11260909023E+03 -0.50779370186E+03  0.55143523025E+03  0.12499927792E+03 0.  0.
         23    2    1    2    0    0  0.13386837876E+03  0.11260909023E+03 -0.44121547324E+03  0.48314032999E+03  0.90288064527E+02 0.  0.
          5    1    3    3  502    0 -0.11580635106E+03 -0.18811708736E+02 -0.24254001802E+03  0.26946751506E+03  0.47000000000E+01 0. -1.
         -5    1    4    4    0  503  0.27493303997E+02  0.16095329967E+02 -0.19584237841E+02  0.37690499908E+02  0.47000000000E+01 0.  1.
          5    1    4    4  503    0  0.10637507476E+03  0.96513760266E+02 -0.42163123540E+03  0.44544983008E+03  0.47000000000E+01 0. -1.
         -5    1    3    3    0  502 -0.18062027699E+02 -0.93797381497E+02 -0.26525368384E+03  0.28196771519E+03  0.47000000000E+01 0. -1.
<mgrwt>
<rscale>  0 0.21031610E+03</rscale>
<asrwt>0</asrwt>
<pdfrwt beam="1">  1        1 0.15258343E+00 0.21500318E+03</pdfrwt>
<pdfrwt beam="2">  1       -1 0.65820302E-02 0.21500318E+03</pdfrwt>
<totfact> 0.18791855E+03</totfact>
</mgrwt>
</event>
<event>
 8    1  0.3551276E-004  0.1572627E+03  0.7546771E-02  0.1200032E+00
         -1   -1    0    0    0  501 -0.00000000000E+00  0.00000000000E+00  0.21731363219E+02  0.21731363219E+02  0.00000000000E+00 0.  1.
          1   -1    0    0  501    0  0.00000000000E+00 -0.00000000000E+00 -0.10067722169E+04  0.10067722169E+04  0.00000000000E+00 0. -1.
         25    2    1    2    0    0  0.85218799944E+02 -0.42959953347E+02 -0.42255716339E+03  0.45087260623E+03  0.12499499693E+03 0.  0.
         23    2    1    2    0    0 -0.85218799944E+02  0.42959953347E+02 -0.56248369030E+03  0.57763097390E+03  0.90342895135E+02 0.  0.
          5    1    4    4  502    0  0.40379265826E+01  0.35899198534E+02 -0.24635022605E+03  0.24902927776E+03  0.47000000000E+01 0. -1.
         -5    1    3    3    0  503 -0.25435848016E+02 -0.32963314269E+02 -0.74407864118E+02  0.85394277879E+02  0.47000000000E+01 0.  1.
          5    1    3    3  503    0  0.11065464796E+03 -0.99966390779E+01 -0.34814929927E+03  0.36547832835E+03  0.47000000000E+01 0.  1.
         -5    1    4    4    0  502 -0.89256726527E+02  0.70607548131E+01 -0.31613346425E+03  0.32860169614E+03  0.47000000000E+01 0.  1.
<mgrwt>
<rscale>  0 0.15035908E+03</rscale>
<asrwt>0</asrwt>
<pdfrwt beam="1">  1        1 0.15488804E+00 0.15726268E+03</pdfrwt>
<pdfrwt beam="2">  1       -1 0.33432864E-02 0.15726268E+03</pdfrwt>
<totfact> 0.49843795E+03</totfact>
</mgrwt>
</event>
<event>
 8    1  0.3551276E-004  0.1834038E+03  0.7546771E-02  0.1169890E+00
          2   -1    0    0  501    0  0.00000000000E+00  0.00000000000E+00  0.65693411810E+03  0.65693411810E+03  0.00000000000E+00 0. -1.
         -2   -1    0    0    0  501 -0.00000000000E+00 -0.00000000000E+00 -0.46286878670E+02  0.46286878670E+02  0.00000000000E+00 0.  1.
         25    2    1    2    0    0  0.11436468642E+03  0.70230268104E+02  0.27674173746E+03  0.33199839057E+03  0.12500148013E+03 0.  0.
         23    2    1    2    0    0 -0.11436468642E+03 -0.70230268104E+02  0.33390550198E+03  0.37122260620E+03  0.91114033195E+02 0.  0.
          5    1    4    4  502    0 -0.22937071972E+02 -0.22463741551E+02  0.19746066879E+03  0.20010880709E+03  0.47000000000E+01 0. -1.
         -5    1    3    3    0  503  0.13853235327E+03  0.41877481970E+02  0.20441104811E+03  0.25050130336E+03  0.47000000000E+01 0. -1.
          5    1    3    3  503    0 -0.24167666843E+02  0.28352786134E+02  0.72330689350E+02  0.81497087211E+02  0.47000000000E+01 0. -1.
         -5    1    4    4    0  502 -0.91427614452E+02 -0.47766526553E+02  0.13644483319E+03  0.17111379911E+03  0.47000000000E+01 0.  1.
<mgrwt>
<rscale>  0 0.17785996E+03</rscale>
<asrwt>0</asrwt>
<pdfrwt beam="1">  1        2 0.10106678E+00 0.18340377E+03</pdfrwt>
<pdfrwt beam="2">  1       -2 0.71210587E-02 0.18340377E+03</pdfrwt>
<totfact> 0.50440437E+03</totfact>
</mgrwt>
</event>
<event>
 8    1  0.3551276E-004  0.1616004E+03  0.7546771E-02  0.1194247E+00
          1   -1    0    0  501    0  0.00000000000E+00  0.00000000000E+00  0.36892807015E+03  0.36892807015E+03  0.00000000000E+00 0. -1.
         -1   -1    0    0    0  501 -0.00000000000E+00 -0.00000000000E+00 -0.65246648639E+02  0.65246648639E+02  0.00000000000E+00 0.  1.
         25    2    1    2    0    0  0.16362109058E+02 -0.10108463802E+03  0.22108046907E+03  0.27384531185E+03  0.12501543250E+03 0.  0.
         23    2    1    2    0    0 -0.16362109058E+02  0.10108463802E+03  0.82600952445E+02  0.16032940694E+03  0.91633938732E+02 0.  0.
          5    1    4    4  502    0 -0.28422514811E+02  0.21047291354E+02 -0.10192619180E+02  0.37105354159E+02  0.47000000000E+01 0. -1.
         -5    1    3    3    0  503  0.34263720013E+02  0.39691835586E+01  0.12676347458E+03  0.13145655333E+03  0.47000000000E+01 0. -1.
          5    1    3    3  503    0 -0.17901610955E+02 -0.10505382158E+03  0.94316994488E+02  0.14238875852E+03  0.47000000000E+01 0. -1.
         -5    1    4    4    0  502  0.12060405753E+02  0.80037346665E+02  0.92793571624E+02  0.12322405278E+03  0.47000000000E+01 0.  1.
<mgrwt>
<rscale>  0 0.15518134E+03</rscale>
<asrwt>0</asrwt>
<pdfrwt beam="1">  1        1 0.56758164E-01 0.16160037E+03</pdfrwt>
<pdfrwt beam="2">  1       -1 0.10037946E-01 0.16160037E+03</pdfrwt>
<totfact> 0.39678243E+03</totfact>
</mgrwt>
</event>
<event>
 8    1  0.3551276E-004  0.2015047E+03  0.7546771E-02  0.1152735E+00
          1   -1    0    0  501    0  0.00000000000E+00  0.00000000000E+00  0.45313313588E+02  0.45313313588E+02  0.00000000000E+00 0. -1.
         -1   -1    0    0    0  501 -0.00000000000E+00 -0.00000000000E+00 -0.82257118058E+03  0.82257118058E+03  0.00000000000E+00 0.  1.
         25    2    1    2    0    0 -0.14175362676E+02 -0.15741576082E+03 -0.45663009504E+03  0.49911440016E+03  0.12499391222E+03 0.  0.
         23    2    1    2    0    0  0.14175362676E+02  0.15741576082E+03 -0.32062777195E+03  0.36877009401E+03  0.90601056420E+02 0.  0.
          5    1    3    3  502    0  0.45924091934E+02 -0.90142055865E+02 -0.31724424793E+03  0.33301743993E+03  0.47000000000E+01 0. -1.
         -5    1    3    3    0  502 -0.60099454610E+02 -0.67273704953E+02 -0.13938584710E+03  0.16609696022E+03  0.47000000000E+01 0. -1.
          5    1    4    4  503    0  0.26632125511E+00  0.10663770438E+03 -0.11692015231E+03  0.15831640136E+03  0.47000000000E+01 0. -1.
         -5    1    4    4    0  503  0.13909041421E+02  0.50778056436E+02 -0.20370761964E+03  0.21045369264E+03  0.47000000000E+01 0.  1.
<mgrwt>
<rscale>  0 0.19648911E+03</rscale>
<asrwt>0</asrwt>
<pdfrwt beam="1">  1        1 0.69712793E-02 0.20150469E+03</pdfrwt>
<pdfrwt beam="2">  1       -1 0.12654941E+00 0.20150469E+03</pdfrwt>
<totfact> 0.60941124E+02</totfact>
</mgrwt>
</event>
<event>
 8    1  0.3551276E-004  0.1462537E+03  0.7546771E-02  0.1215127E+00
         -1   -1    0    0    0  501 -0.00000000000E+00  0.00000000000E+00  0.15268437350E+03  0.15268437350E+03  0.00000000000E+00 0.  1.
          1   -1    0    0  501    0  0.00000000000E+00 -0.00000000000E+00 -0.11451535331E+03  0.11451535331E+03  0.00000000000E+00 0. -1.
         25    2    1    2    0    0  0.69771358161E+02  0.29957545786E+02  0.21197942385E+02  0.14778189231E+03  0.12499855185E+03 0.  0.
         23    2    1    2    0    0 -0.69771358161E+02 -0.29957545786E+02  0.16971077809E+02  0.11941783450E+03  0.90593072282E+02 0.  0.
          5    1    3    3  502    0 -0.49775795291E+01  0.31143712395E+02 -0.39929551428E+02  0.51099571397E+02  0.47000000000E+01 0.  1.
         -5    1    4    4    0  503 -0.15200496739E+02 -0.44214149173E+02  0.36548052014E+02  0.59529792492E+02  0.47000000000E+01 0.  1.
          5    1    4    4  503    0 -0.54570861422E+02  0.14256603387E+02 -0.19576974205E+02  0.59888042007E+02  0.47000000000E+01 0. -1.
         -5    1    3    3    0  502  0.74748937690E+02 -0.11861666088E+01  0.61127493813E+02  0.96682320912E+02  0.47000000000E+01 0.  1.
<mgrwt>
<rscale>  0 0.13867230E+03</rscale>
<asrwt>0</asrwt>
<pdfrwt beam="1">  1        1 0.17617746E-01 0.14625367E+03</pdfrwt>
<pdfrwt beam="2">  1       -1 0.23489904E-01 0.14625367E+03</pdfrwt>
<totfact> 0.44774192E+03</totfact>
</mgrwt>
</event>
<event>
 8    1  0.3551276E-004  0.1400808E+03  0.7546771E-02  0.1224111E+00
         -2   -1    0    0    0  501 -0.00000000000E+00  0.00000000000E+00  0.20303499367E+02  0.20303499367E+02  0.00000000000E+00 0.  1.
          2   -1    0    0  501    0  0.00000000000E+00 -0.00000000000E+00 -0.78013992215E+03  0.78013992215E+03  0.00000000000E+00 0. -1.
         25    2    1    2    0    0 -0.18705674189E+02 -0.60389713831E+02 -0.40580499033E+03  0.42930213897E+03  0.12500326623E+03 0.  0.
         23    2    1    2    0    0  0.18705674189E+02  0.60389713831E+02 -0.35403143245E+03  0.37114128254E+03  0.91710286553E+02 0.  0.
          5    1    4    4  502    0  0.95072907926E+01 -0.21650549404E+02 -0.13261748289E+03  0.13479102951E+03  0.47000000000E+01 0. -1.
         -5    1    4    4    0  502  0.91983833961E+01  0.82040263235E+02 -0.22141394956E+03  0.23635025303E+03  0.47000000000E+01 0.  1.
          5    1    3    3  503    0  0.48885604057E+02 -0.11558094100E+02 -0.21803179042E+03  0.22379308179E+03  0.47000000000E+01 0. -1.
         -5    1    3    3    0  503 -0.67591278245E+02 -0.48831619730E+02 -0.18777319991E+03  0.20550905719E+03  0.47000000000E+01 0. -1.
<mgrwt>
<rscale>  0 0.13228024E+03</rscale>
<asrwt>0</asrwt>
<pdfrwt beam="1">  1        2 0.12002150E+00 0.14008082E+03</pdfrwt>
<pdfrwt beam="2">  1       -2 0.31236159E-02 0.14008082E+03</pdfrwt>
<totfact> 0.13965247E+04</totfact>
</mgrwt>
</event>
<event>
 8    1  0.3551276E-004  0.1518926E+03  0.7546771E-02  0.1206826E+00
          1   -1    0    0  501    0  0.00000000000E+00  0.00000000000E+00  0.19800915723E+03  0.19800915723E+03  0.00000000000E+00 0. -1.
         -1   -1    0    0    0  501 -0.00000000000E+00 -0.00000000000E+00 -0.13454406901E+03  0.13454406901E+03  0.00000000000E+00 0.  1.
         25    2    1    2    0    0  0.59916415354E+02  0.62121047020E+02 -0.53132344338E+02  0.16091736566E+03  0.12498940453E+03 0.  0.
         23    2    1    2    0    0 -0.59916415354E+02 -0.62121047020E+02  0.11659743255E+03  0.17163586058E+03  0.91732797016E+02 0.  0.
          5    1    4    4  502    0 -0.19618987862E+02 -0.77329781276E+02  0.91802728793E+02  0.12171536785E+03  0.47000000000E+01 0. -1.
         -5    1    4    4    0  502 -0.40297427493E+02  0.15208734256E+02  0.24794703760E+02  0.49920492733E+02  0.47000000000E+01 0.  1.
          5    1    3    3  503    0  0.82666502248E+02  0.42703837590E+02 -0.78181651136E+02  0.12162166301E+03  0.47000000000E+01 0. -1.
         -5    1    3    3    0  503 -0.22750086894E+02  0.19417209430E+02  0.25049306798E+02  0.39295702650E+02  0.47000000000E+01 0. -1.
<mgrwt>
<rscale>  0 0.14494514E+03</rscale>
<asrwt>0</asrwt>
<pdfrwt beam="1">  1        1 0.30462947E-01 0.15189257E+03</pdfrwt>
<pdfrwt beam="2">  1       -1 0.20699088E-01 0.15189257E+03</pdfrwt>
<totfact> 0.27570276E+03</totfact>
</mgrwt>
</event>
<event>
 8    1  0.3551276E-004  0.1515685E+03  0.7546771E-02  0.1208190E+00
         -3   -1    0    0    0  501 -0.00000000000E+00  0.00000000000E+00  0.31768026729E+03  0.31768026729E+03  0.00000000000E+00 0.  1.
          3   -1    0    0  501    0  0.00000000000E+00 -0.00000000000E+00 -0.80558350397E+02  0.80558350397E+02  0.00000000000E+00 0. -1.
         25    2    1    2    0    0 -0.17349523825E+02 -0.83966501793E+02  0.22932178669E+03  0.27488448853E+03  0.12498648241E+03 0.  0.
         23    2    1    2    0    0  0.17349523825E+02  0.83966501793E+02  0.78001301985E+01  0.12335412915E+03  0.88340363069E+02 0.  0.
          5    1    4    4  502    0 -0.28648905796E+02  0.32113359338E+02 -0.21037975136E+02  0.48132255807E+02  0.47000000000E+01 0. -1.
         -5    1    4    4    0  502  0.45998429621E+02  0.51853142455E+02  0.28838105334E+02  0.75221873344E+02  0.47000000000E+01 0.  1.
          5    1    3    3  503    0  0.17999547739E+02 -0.66048255540E+02  0.22441988019E+03  0.23467579424E+03  0.47000000000E+01 0.  1.
         -5    1    3    3    0  503 -0.35349071564E+02 -0.17918246252E+02  0.49019064996E+01  0.40208694290E+02  0.47000000000E+01 0.  1.
<mgrwt>
<rscale>  0 0.14388899E+03</rscale>
<asrwt>0</asrwt>
<pdfrwt beam="1">  1        3 0.12393593E-01 0.15156847E+03</pdfrwt>
<pdfrwt beam="2">  1       -3 0.48873887E-01 0.15156847E+03</pdfrwt>
<totfact> 0.50675865E+02</totfact>
</mgrwt>
</event>
<event>
 8    1  0.3551276E-004  0.1409024E+03  0.7546771E-02  0.1223306E+00
          2   -1    0    0  501    0  0.00000000000E+00  0.00000000000E+00  0.11301521602E+04  0.11301521602E+04  0.00000000000E+00 0. -1.
         -2   -1    0    0    0  501 -0.00000000000E+00 -0.00000000000E+00 -0.14685401689E+02  0.14685401689E+02  0.00000000000E+00 0.  1.
         25    2    1    2    0    0 -0.44573312599E+02 -0.47342502011E+02  0.73675538760E+03  0.75010799268E+03  0.12500162732E+03 0.  0.
         23    2    1    2    0    0  0.44573312599E+02  0.47342502011E+02  0.37871137092E+03  0.39472956922E+03  0.90338461678E+02 0.  0.
          5    1    4    4  502    0  0.62917605674E+02  0.60265955806E+02  0.27478869316E+03  0.28830804085E+03  0.47000000000E+01 0. -1.
         -5    1    3    3    0  503 -0.77611448989E+02 -0.16449801920E+01  0.30948653318E+03  0.31910851946E+03  0.47000000000E+01 0.  1.
          5    1    3    3  503    0  0.33038136390E+02 -0.45697521819E+02  0.42726885443E+03  0.43099947322E+03  0.47000000000E+01 0.  1.
         -5    1    4    4    0  502 -0.18344293075E+02 -0.12923453795E+02  0.10392267776E+03  0.10642152836E+03  0.47000000000E+01 0.  1.
<mgrwt>
<rscale>  0 0.13283698E+03</rscale>
<asrwt>0</asrwt>
<pdfrwt beam="1">  1        2 0.17386949E+00 0.14090245E+03</pdfrwt>
<pdfrwt beam="2">  1       -2 0.22592935E-02 0.14090245E+03</pdfrwt>
<totfact> 0.13659425E+04</totfact>
</mgrwt>
</event>
<event>
 8    1  0.3551276E-004  0.5414813E+03  0.7546771E-02  0.1003876E+00
         -2   -1    0    0    0  501 -0.00000000000E+00  0.00000000000E+00  0.80046600674E+02  0.80046600674E+02  0.00000000000E+00 0.  1.
          2   -1    0    0  501    0  0.00000000000E+00 -0.00000000000E+00 -0.36529765111E+04  0.36529765111E+04  0.00000000000E+00 0. -1.
         25    2    1    2    0    0  0.52417737663E+03 -0.53050510119E+02 -0.19786060794E+04  0.20513614986E+04  0.12500280737E+03 0.  0.
         23    2    1    2    0    0 -0.52417737663E+03  0.53050510119E+02 -0.15943238311E+04  0.16816616132E+04  0.92417661456E+02 0.  0.
          5    1    4    4  502    0 -0.58791047519E+02 -0.22790004260E+02 -0.17718682334E+03  0.18813035887E+03  0.47000000000E+01 0. -1.
         -5    1    4    4    0  502 -0.46538632911E+03  0.75840514378E+02 -0.14171370077E+04  0.14935312543E+04  0.47000000000E+01 0.  1.
          5    1    3    3  503    0  0.38156252104E+03  0.16959640003E+02 -0.13534273235E+04  0.14062948470E+04  0.47000000000E+01 0.  1.
         -5    1    3    3    0  503  0.14261485559E+03 -0.70010150122E+02 -0.62517875590E+03  0.64506665158E+03  0.47000000000E+01 0.  1.
<mgrwt>
<rscale>  0 0.53982824E+03</rscale>
<asrwt>0</asrwt>
<pdfrwt beam="1">  1        2 0.56199654E+00 0.54148128E+03</pdfrwt>
<pdfrwt beam="2">  1       -2 0.12314858E-01 0.54148128E+03</pdfrwt>
<totfact> 0.34773778E+01</totfact>
</mgrwt>
</event>
<event>
 8    1  0.3551276E-004  0.1923365E+03  0.7546771E-02  0.1161281E+00
          1   -1    0    0  501    0  0.00000000000E+00  0.00000000000E+00  0.91474534324E+02  0.91474534324E+02  0.00000000000E+00 0. -1.
         -1   -1    0    0    0  501 -0.00000000000E+00 -0.00000000000E+00 -0.37962767071E+03  0.37962767071E+03  0.00000000000E+00 0.  1.
         25    2    1    2    0    0 -0.13087003447E+03 -0.65134318939E+02 -0.10100782483E+03  0.21724620030E+03  0.12499554168E+03 0.  0.
         23    2    1    2    0    0  0.13087003447E+03  0.65134318939E+02 -0.18714531155E+03  0.25385600474E+03  0.89722115883E+02 0.  0.
          5    1    4    4  502    0  0.96207425762E+02  0.81517000287E+02 -0.10924617081E+03  0.16690627893E+03  0.47000000000E+01 0. -1.
         -5    1    3    3    0  503 -0.25118446774E+02 -0.71585502005E+02 -0.77633694916E+02  0.10864852071E+03  0.47000000000E+01 0. -1.
          5    1    3    3  503    0 -0.10575158770E+03  0.64511830658E+01 -0.23374129918E+02  0.10859767959E+03  0.47000000000E+01 0. -1.
         -5    1    4    4    0  502  0.34662608709E+02 -0.16382681348E+02 -0.77899140739E+02  0.86949725810E+02  0.47000000000E+01 0.  1.
<mgrwt>
<rscale>  0 0.18690706E+03</rscale>
<asrwt>0</asrwt>
<pdfrwt beam="1">  1        1 0.14073005E-01 0.19233650E+03</pdfrwt>
<pdfrwt beam="2">  1       -1 0.58404258E-01 0.19233650E+03</pdfrwt>
<totfact> 0.12316951E+03</totfact>
</mgrwt>
</event>
<event>
 8    1  0.3551276E-004  0.1365170E+03  0.7546771E-02  0.1230695E+00
         -2   -1    0    0    0  501 -0.00000000000E+00  0.00000000000E+00  0.38008917930E+02  0.38008917930E+02  0.00000000000E+00 0.  1.
          2   -1    0    0  501    0  0.00000000000E+00 -0.00000000000E+00 -0.48155327699E+03  0.48155327699E+03  0.00000000000E+00 0. -1.
         25    2    1    2    0    0  0.14274805520E+02  0.52988785521E+02 -0.12847889632E+03  0.18746658741E+03  0.12500125251E+03 0.  0.
         23    2    1    2    0    0 -0.14274805520E+02 -0.52988785521E+02 -0.31506546274E+03  0.33209560751E+03  0.89496733211E+02 0.  0.
          5    1    4    4  502    0  0.16310144821E+02 -0.62683886021E+02 -0.26181325875E+03  0.26974722028E+03  0.47000000000E+01 0. -1.
         -5    1    3    3    0  503 -0.38015666413E+02  0.70238177193E+02 -0.88223215967E+02  0.11909667612E+03  0.47000000000E+01 0.  1.
          5    1    3    3  503    0  0.52290471933E+02 -0.17249391672E+02 -0.40255680356E+02  0.68369911284E+02  0.47000000000E+01 0.  1.
         -5    1    4    4    0  502 -0.30584950341E+02  0.96951005001E+01 -0.53252203985E+02  0.62348387231E+02  0.47000000000E+01 0.  1.
<mgrwt>
<rscale>  0 0.12784064E+03</rscale>
<asrwt>0</asrwt>
<pdfrwt beam="1">  1        2 0.74085115E-01 0.13651701E+03</pdfrwt>
<pdfrwt beam="2">  1       -2 0.58475262E-02 0.13651701E+03</pdfrwt>
<totfact> 0.95307354E+03</totfact>
</mgrwt>
</event>
<event>
 8    1  0.3551276E-004  0.1839819E+03  0.7546771E-02  0.1169383E+00
          2   -1    0    0  501    0  0.00000000000E+00  0.00000000000E+00  0.12133123481E+04  0.12133123481E+04  0.00000000000E+00 0.  1.
         -2   -1    0    0    0  501 -0.00000000000E+00 -0.00000000000E+00 -0.31370106148E+02  0.31370106148E+02  0.00000000000E+00 0. -1.
         25    2    1    2    0    0 -0.10665663399E+03  0.82765748822E+02  0.33421966234E+03  0.38151294919E+03  0.12499416367E+03 0.  0.
         23    2    1    2    0    0  0.10665663399E+03 -0.82765748822E+02  0.84772257958E+03  0.86316950503E+03  0.90566084865E+02 0.  0.
          5    1    3    3  502    0  0.43653695927E+01  0.44839478542E+02  0.19108780442E+03  0.19638297861E+03  0.47000000000E+01 0.  1.
         -5    1    3    3    0  502 -0.11102200358E+03  0.37926270280E+02  0.14313185792E+03  0.18512997058E+03  0.47000000000E+01 0.  1.
          5    1    4    4  503    0  0.83921053240E+02 -0.84934128521E+02  0.81039715485E+03  0.81915943989E+03  0.47000000000E+01 0. -1.
         -5    1    4    4    0  503  0.22735580749E+02  0.21683796991E+01  0.37325424729E+02  0.44010065141E+02  0.47000000000E+01 0.  1.
<mgrwt>
<rscale>  0 0.17837724E+03</rscale>
<asrwt>0</asrwt>
<pdfrwt beam="1">  1        2 0.18666340E+00 0.18398192E+03</pdfrwt>
<pdfrwt beam="2">  1       -2 0.48261711E-02 0.18398192E+03</pdfrwt>
<totfact> 0.40245098E+03</totfact>
</mgrwt>
</event>
<event>
 8    1  0.3551276E-004  0.1736804E+03  0.7546771E-02  0.1180278E+00
         -4   -1    0    0    0  501 -0.00000000000E+00  0.00000000000E+00  0.16992909224E+03  0.16992909224E+03  0.00000000000E+00 0.  1.
          4   -1    0    0  501    0  0.00000000000E+00 -0.00000000000E+00 -0.18541801757E+03  0.18541801757E+03  0.00000000000E+00 0. -1.
         25    2    1    2    0    0  0.66168481706E+02  0.10079957686E+03 -0.79983843913E+02  0.19121267998E+03  0.12500420405E+03 0.  0.
         23    2    1    2    0    0 -0.66168481706E+02 -0.10079957686E+03  0.64494918591E+02  0.16413442983E+03  0.90783775346E+02 0.  0.
          5    1    3    3  502    0  0.59796652609E+01  0.87299667003E+02 -0.93228474016E+02  0.12794774958E+03  0.47000000000E+01 0. -1.
         -5    1    4    4    0  503  0.14004735124E+02 -0.27597084030E+02  0.43284797845E+02  0.53417182417E+02  0.47000000000E+01 0.  1.
          5    1    4    4  503    0 -0.80173216830E+02 -0.73202492831E+02  0.21210120746E+02  0.11071724742E+03  0.47000000000E+01 0. -1.
         -5    1    3    3    0  502  0.60188816445E+02  0.13499909859E+02  0.13244630103E+02  0.63264930394E+02  0.47000000000E+01 0. -1.
<mgrwt>
<rscale>  0 0.16769052E+03</rscale>
<asrwt>0</asrwt>
<pdfrwt beam="1">  1        4 0.28525849E-01 0.17368038E+03</pdfrwt>
<pdfrwt beam="2">  1       -4 0.26142938E-01 0.17368038E+03</pdfrwt>
<totfact> 0.28033037E+02</totfact>
</mgrwt>
</event>
<event>
 8    1  0.3551276E-004  0.1407165E+03  0.7546771E-02  0.1223397E+00
         -2   -1    0    0    0  501 -0.00000000000E+00  0.00000000000E+00  0.30582600044E+02  0.30582600044E+02  0.00000000000E+00 0.  1.
          2   -1    0    0  501    0  0.00000000000E+00 -0.00000000000E+00 -0.52351855580E+03  0.52351855580E+03  0.00000000000E+00 0. -1.
         25    2    1    2    0    0  0.62922757045E+02 -0.14698776999E+02 -0.25275860260E+03  0.28928886562E+03  0.12500323669E+03 0.  0.
         23    2    1    2    0    0 -0.62922757045E+02  0.14698776999E+02 -0.24017735315E+03  0.26481229022E+03  0.90912379176E+02 0.  0.
          5    1    3    3  502    0  0.15010482295E+02 -0.66980278671E+02 -0.14016661144E+03  0.15614237500E+03  0.47000000000E+01 0.  1.
         -5    1    3    3    0  502  0.47912274750E+02  0.52281501672E+02 -0.11259199116E+03  0.13314649061E+03  0.47000000000E+01 0.  1.
          5    1    4    4  503    0 -0.20970591484E+02 -0.36559659288E+02 -0.12328723907E+03  0.13037717481E+03  0.47000000000E+01 0. -1.
         -5    1    4    4    0  503 -0.41952165561E+02  0.51258436287E+02 -0.11689011408E+03  0.13443511541E+03  0.47000000000E+01 0.  1.
<mgrwt>
<rscale>  0 0.13277400E+03</rscale>
<asrwt>0</asrwt>
<pdfrwt beam="1">  1        2 0.80541314E-01 0.14071651E+03</pdfrwt>
<pdfrwt beam="2">  1       -2 0.47050155E-02 0.14071651E+03</pdfrwt>
<totfact> 0.12086803E+04</totfact>
</mgrwt>
</event>
<event>
 8    1  0.3671174E-004  0.1800739E+03  0.7546771E-02  0.1172850E+00
         -2   -1    0    0    0  501 -0.00000000000E+00  0.00000000000E+00  0.22896323534E+02  0.22896323534E+02  0.00000000000E+00 0.  1.
          2   -1    0    0  501    0  0.00000000000E+00 -0.00000000000E+00 -0.13215644032E+04  0.13215644032E+04  0.00000000000E+00 0. -1.
         25    2    1    2    0    0  0.99849562293E+02 -0.82655045001E+02 -0.54576042312E+03  0.57470084435E+03  0.12499931795E+03 0.  0.
         23    2    1    2    0    0 -0.99849562293E+02  0.82655045001E+02 -0.75290765659E+03  0.76975988243E+03  0.94119847551E+02 0.  0.
          5    1    4    4  502    0 -0.14718049481E+02  0.63703735988E+02 -0.21381063129E+03  0.22363332268E+03  0.47000000000E+01 0. -1.
         -5    1    4    4    0  502 -0.85131512811E+02  0.18951309013E+02 -0.53909702529E+03  0.54612655975E+03  0.47000000000E+01 0.  1.
          5    1    3    3  503    0  0.40277041353E+02  0.31234365922E+02 -0.17002932765E+03  0.17756657325E+03  0.47000000000E+01 0.  1.
         -5    1    3    3    0  503  0.59572520940E+02 -0.11388941092E+03 -0.37573109548E+03  0.39713427110E+03  0.47000000000E+01 0.  1.
<mgrwt>
<rscale>  0 0.17488233E+03</rscale>
<asrwt>0</asrwt>
<pdfrwt beam="1">  1        2 0.20331761E+00 0.18007393E+03</pdfrwt>
<pdfrwt beam="2">  1       -2 0.35225112E-02 0.18007393E+03</pdfrwt>
<totfact> 0.56217243E+03</totfact>
</mgrwt>
</event>
<event>
 8    1  0.3551276E-004  0.1513203E+03  0.7546771E-02  0.1207876E+00
          1   -1    0    0  501    0  0.00000000000E+00  0.00000000000E+00  0.60647986463E+03  0.60647986463E+03  0.00000000000E+00 0. -1.
         -1   -1    0    0    0  501 -0.00000000000E+00 -0.00000000000E+00 -0.33967141156E+02  0.33967141156E+02  0.00000000000E+00 0.  1.
         25    2    1    2    0    0 -0.34516231441E+02  0.77990719996E+02  0.22377036775E+03  0.27013149538E+03  0.12499569862E+03 0.  0.
         23    2    1    2    0    0  0.34516231441E+02 -0.77990719996E+02  0.34874235572E+03  0.37031551041E+03  0.90765764113E+02 0.  0.
          5    1    4    4  502    0  0.24301326154E+02 -0.98055040263E+02  0.29518653265E+03  0.31202968518E+03  0.47000000000E+01 0. -1.
         -5    1    4    4    0  502  0.10214905287E+02  0.20064320267E+02  0.53555823074E+02  0.58285825232E+02  0.47000000000E+01 0.  1.
          5    1    3    3  503    0 -0.34195923534E+01  0.68185278255E+02  0.22694297123E+03  0.23703613221E+03  0.47000000000E+01 0.  1.
         -5    1    3    3    0  503 -0.31096639088E+02  0.98054417415E+01 -0.31726034806E+01  0.33095363167E+02  0.47000000000E+01 0.  1.
<mgrwt>
<rscale>  0 0.14413109E+03</rscale>
<asrwt>0</asrwt>
<pdfrwt beam="1">  1        1 0.93304587E-01 0.15132035E+03</pdfrwt>
<pdfrwt beam="2">  1       -1 0.52257145E-02 0.15132035E+03</pdfrwt>
<totfact> 0.55378356E+03</totfact>
</mgrwt>
</event>
<event>
 8    1  0.3551276E-004  0.1720871E+03  0.7546771E-02  0.1181721E+00
         -1   -1    0    0    0  501 -0.00000000000E+00  0.00000000000E+00  0.22488041142E+03  0.22488041142E+03  0.00000000000E+00 0.  1.
          1   -1    0    0  501    0  0.00000000000E+00 -0.00000000000E+00 -0.22973301849E+03  0.22973301849E+03  0.00000000000E+00 0. -1.
         25    2    1    2    0    0 -0.63348770824E+02 -0.99868114042E+02 -0.16262073902E+03  0.23676880382E+03  0.12500901861E+03 0.  0.
         23    2    1    2    0    0  0.63348770824E+02  0.99868114042E+02  0.15776813195E+03  0.21784462608E+03  0.92621761404E+02 0.  0.
          5    1    3    3  502    0 -0.29089234366E+02 -0.25154528815E+02 -0.14820844313E+03  0.15318866306E+03  0.47000000000E+01 0. -1.
         -5    1    3    3    0  502 -0.34259536458E+02 -0.74713585228E+02 -0.14412295892E+02  0.83580140756E+02  0.47000000000E+01 0. -1.
          5    1    4    4  503    0  0.64933046150E+02  0.30047494946E+02  0.43571922672E+02  0.83903247137E+02  0.47000000000E+01 0. -1.
         -5    1    4    4    0  503 -0.15842753267E+01  0.69820619096E+02  0.11419620928E+03  0.13394137894E+03  0.47000000000E+01 0.  1.
<mgrwt>
<rscale>  0 0.16633813E+03</rscale>
<asrwt>0</asrwt>
<pdfrwt beam="1">  1        1 0.35343541E-01 0.17208708E+03</pdfrwt>
<pdfrwt beam="2">  1       -1 0.34596986E-01 0.17208708E+03</pdfrwt>
<totfact> 0.97731525E+02</totfact>
</mgrwt>
</event>
<event>
 8    1  0.3551276E-004  0.1389289E+03  0.7546771E-02  0.1225839E+00
         -2   -1    0    0    0  501 -0.00000000000E+00  0.00000000000E+00  0.23334019166E+03  0.23334019166E+03  0.00000000000E+00 0.  1.
          2   -1    0    0  501    0  0.00000000000E+00 -0.00000000000E+00 -0.11047410996E+03  0.11047410996E+03  0.00000000000E+00 0. -1.
         25    2    1    2    0    0  0.47806664326E+02 -0.37283782191E+02 -0.42355688096E+02  0.14524198146E+03  0.12500268516E+03 0.  0.
         23    2    1    2    0    0 -0.47806664326E+02  0.37283782191E+02  0.16522176979E+03  0.19857232016E+03  0.91962903131E+02 0.  0.
          5    1    3    3  502    0 -0.34352766186E+02 -0.40049373827E+02 -0.32905460958E+02  0.62361239960E+02  0.47000000000E+01 0.  1.
         -5    1    4    4    0  503 -0.29996249289E+02  0.22461341159E+02  0.17025970529E+03  0.17439823412E+03  0.47000000000E+01 0.  1.
          5    1    4    4  503    0 -0.17810415037E+02  0.14822441032E+02 -0.50379354977E+01  0.24174086043E+02  0.47000000000E+01 0. -1.
         -5    1    3    3    0  502  0.82159430512E+02  0.27655916359E+01 -0.94502271377E+01  0.82880741503E+02  0.47000000000E+01 0.  1.
<mgrwt>
<rscale>  0 0.13109592E+03</rscale>
<asrwt>0</asrwt>
<pdfrwt beam="1">  1        2 0.16996017E-01 0.13892886E+03</pdfrwt>
<pdfrwt beam="2">  1       -2 0.35898491E-01 0.13892886E+03</pdfrwt>
<totfact> 0.23811971E+03</totfact>
</mgrwt>
</event>
<event>
 8    1  0.3551276E-004  0.1447214E+03  0.7546771E-02  0.1217308E+00
          1   -1    0    0  501    0  0.00000000000E+00  0.00000000000E+00  0.62765905318E+03  0.62765905318E+03  0.00000000000E+00 0. -1.
         -1   -1    0    0    0  501 -0.00000000000E+00 -0.00000000000E+00 -0.27450473379E+02  0.27450473379E+02  0.00000000000E+00 0.  1.
         25    2    1    2    0    0  0.72665198343E+02 -0.58572496363E+01  0.36453427174E+03  0.39221106535E+03  0.12501898289E+03 0.  0.
         23    2    1    2    0    0 -0.72665198343E+02  0.58572496363E+01  0.23567430806E+03  0.26289846122E+03  0.90877296423E+02 0.  0.
          5    1    4    4  502    0 -0.41181791687E+02  0.41641030469E+02  0.18057834013E+03  0.18989613559E+03  0.47000000000E+01 0. -1.
         -5    1    3    3    0  503  0.30585632545E+02 -0.64974776096E+02  0.18580532535E+03  0.19925589420E+03  0.47000000000E+01 0. -1.
          5    1    3    3  503    0  0.42079565798E+02  0.59117526459E+02  0.17872894639E+03  0.19295517114E+03  0.47000000000E+01 0. -1.
         -5    1    4    4    0  502 -0.31483406655E+02 -0.35783780833E+02  0.55095967931E+02  0.73002325631E+02  0.47000000000E+01 0.  1.
<mgrwt>
<rscale>  0 0.13708342E+03</rscale>
<asrwt>0</asrwt>
<pdfrwt beam="1">  1        1 0.96562921E-01 0.14472140E+03</pdfrwt>
<pdfrwt beam="2">  1       -1 0.42231502E-02 0.14472140E+03</pdfrwt>
<totfact> 0.72219277E+03</totfact>
</mgrwt>
</event>
<event>
 8    1  0.3551276E-004  0.3810797E+03  0.7546771E-02  0.1051538E+00
          2   -1    0    0  501    0  0.00000000000E+00  0.00000000000E+00  0.20748106409E+04  0.20748106409E+04  0.00000000000E+00 0. -1.
         -2   -1    0    0    0  501 -0.00000000000E+00 -0.00000000000E+00 -0.70966064963E+02  0.70966064963E+02  0.00000000000E+00 0.  1.
         25    2    1    2    0    0  0.15267387154E+02 -0.35967174316E+03  0.12335986312E+04  0.12911186426E+04  0.12499964123E+03 0.  0.
         23    2    1    2    0    0 -0.15267387154E+02  0.35967174316E+03  0.77024594466E+03  0.85465806324E+03  0.86975478430E+02 0.  0.
          5    1    3    3  502    0  0.20807076468E+02 -0.80706376919E+01  0.33298387976E+02  0.40360156909E+02  0.47000000000E+01 0.  1.
         -5    1    3    3    0  502 -0.55396893147E+01 -0.35160110547E+03  0.12003002433E+04  0.12507584857E+04  0.47000000000E+01 0.  1.
          5    1    4    4  503    0 -0.42683631342E+02  0.22076380605E+03  0.53018252240E+03  0.57591157959E+03  0.47000000000E+01 0. -1.
         -5    1    4    4    0  503  0.27416244189E+02  0.13890793711E+03  0.24006342226E+03  0.27874648364E+03  0.47000000000E+01 0.  1.
<mgrwt>
<rscale>  0 0.37836936E+03</rscale>
<asrwt>0</asrwt>
<pdfrwt beam="1">  1        2 0.31920159E+00 0.38107974E+03</pdfrwt>
<pdfrwt beam="2">  1       -2 0.10917858E-01 0.38107974E+03</pdfrwt>
<totfact> 0.38458486E+02</totfact>
</mgrwt>
</event>
<event>
 8    1  0.3551276E-004  0.1302654E+03  0.7546771E-02  0.1241740E+00
          1   -1    0    0  501    0  0.00000000000E+00  0.00000000000E+00  0.13092186997E+02  0.13092186997E+02  0.00000000000E+00 0. -1.
         -1   -1    0    0    0  501 -0.00000000000E+00 -0.00000000000E+00 -0.10286973573E+04  0.10286973573E+04  0.00000000000E+00 0.  1.
         25    2    1    2    0    0  0.34465151060E+02 -0.12510217587E+02 -0.46942157444E+03  0.48716083741E+03  0.12499885910E+03 0.  0.
         23    2    1    2    0    0 -0.34465151060E+02  0.12510217587E+02 -0.54618359587E+03  0.55462870689E+03  0.89174715758E+02 0.  0.
          5    1    4    4  502    0 -0.66926170526E+00  0.47388174273E+02 -0.27038002608E+03  0.27454241107E+03  0.47000000000E+01 0. -1.
         -5    1    4    4    0  502 -0.33795889354E+02 -0.34877956686E+02 -0.27580356979E+03  0.28008629583E+03  0.47000000000E+01 0.  1.
          5    1    3    3  503    0  0.44786314414E+02  0.42096532273E+02 -0.13886874285E+03  0.15193600538E+03  0.47000000000E+01 0. -1.
         -5    1    3    3    0  503 -0.10321163355E+02 -0.54606749859E+02 -0.33055283159E+03  0.33522483203E+03  0.47000000000E+01 0. -1.
<mgrwt>
<rscale>  0 0.12082632E+03</rscale>
<asrwt>0</asrwt>
<pdfrwt beam="1">  1        1 0.20141830E-02 0.13026537E+03</pdfrwt>
<pdfrwt beam="2">  1       -1 0.15826110E+00 0.13026537E+03</pdfrwt>
<totfact> 0.19006044E+03</totfact>
</mgrwt>
</event>
<event>
 8    1  0.3551276E-004  0.1316857E+03  0.7546771E-02  0.1237908E+00
          3   -1    0    0  501    0  0.00000000000E+00  0.00000000000E+00  0.40060771642E+03  0.40060771642E+03  0.00000000000E+00 0. -1.
         -3   -1    0    0    0  501 -0.00000000000E+00 -0.00000000000E+00 -0.36189337737E+02  0.36189337737E+02  0.00000000000E+00 0.  1.
         25    2    1    2    0    0 -0.12254106213E+02 -0.39569550443E+02  0.26088918193E+03  0.29224010265E+03  0.12500079962E+03 0.  0.
         23    2    1    2    0    0  0.12254106213E+02  0.39569550443E+02  0.10352919675E+03  0.14455695151E+03  0.91991875771E+02 0.  0.
          5    1    4    4  502    0 -0.65568932923E+01  0.54833107879E+02  0.10614385101E+03  0.11974251408E+03  0.47000000000E+01 0. -1.
         -5    1    4    4    0  502  0.18810999506E+02 -0.15263557436E+02 -0.26146542653E+01  0.24814437429E+02  0.47000000000E+01 0.  1.
          5    1    3    3  503    0 -0.56089026191E+00 -0.74145479597E+02  0.86577524560E+02  0.11408603991E+03  0.47000000000E+01 0.  1.
         -5    1    3    3    0  503 -0.11693215951E+02  0.34575929154E+02  0.17431165737E+03  0.17815406274E+03  0.47000000000E+01 0.  1.
<mgrwt>
<rscale>  0 0.12320090E+03</rscale>
<asrwt>0</asrwt>
<pdfrwt beam="1">  1        3 0.61631953E-01 0.13168566E+03</pdfrwt>
<pdfrwt beam="2">  1       -3 0.55675907E-02 0.13168566E+03</pdfrwt>
<totfact> 0.11467253E+03</totfact>
</mgrwt>
</event>
<event>
 8    1  0.3551276E-004  0.1318686E+03  0.7546771E-02  0.1237928E+00
         -3   -1    0    0    0  501 -0.00000000000E+00  0.00000000000E+00  0.91731660325E+02  0.91731660325E+02  0.00000000000E+00 0.  1.
          3   -1    0    0  501    0  0.00000000000E+00 -0.00000000000E+00 -0.14743177341E+03  0.14743177341E+03  0.00000000000E+00 0. -1.
         25    2    1    2    0    0 -0.41471244067E+02  0.62525756281E+01 -0.37521574151E+02  0.13710282440E+03  0.12502142675E+03 0.  0.
         23    2    1    2    0    0  0.41471244067E+02 -0.62525756281E+01 -0.18178538937E+02  0.10206060934E+03  0.91252122790E+02 0.  0.
          5    1    3    3  502    0 -0.59434691947E+02  0.31771618599E+02 -0.66108047323E+02  0.94521332386E+02  0.47000000000E+01 0.  1.
         -5    1    4    4    0  503 -0.12699415955E+02  0.23017391937E+02  0.16348313248E+02  0.31311864257E+02  0.47000000000E+01 0.  1.
          5    1    4    4  503    0  0.54170660022E+02 -0.29269967565E+02 -0.34526852184E+02  0.70748745079E+02  0.47000000000E+01 0. -1.
         -5    1    3    3    0  502  0.17963447881E+02 -0.25519042971E+02  0.28586473171E+02  0.42581492016E+02  0.47000000000E+01 0.  1.
<mgrwt>
<rscale>  0 0.12318854E+03</rscale>
<asrwt>0</asrwt>
<pdfrwt beam="1">  1        3 0.22681811E-01 0.13186856E+03</pdfrwt>
<pdfrwt beam="2">  1       -3 0.14112563E-01 0.13186856E+03</pdfrwt>
<totfact> 0.16876820E+03</totfact>
</mgrwt>
</event>
<event>
 8    1  0.3551276E-004  0.1408237E+03  0.7546771E-02  0.1223062E+00
          3   -1    0    0  501    0  0.00000000000E+00  0.00000000000E+00  0.71384535936E+02  0.71384535936E+02  0.00000000000E+00 0. -1.
         -3   -1    0    0    0  501 -0.00000000000E+00 -0.00000000000E+00 -0.24018474584E+03  0.24018474584E+03  0.00000000000E+00 0.  1.
         25    2    1    2    0    0  0.64196391409E+02 -0.92707991358E+01 -0.13358279306E+03  0.19410222761E+03  0.12499675106E+03 0.  0.
         23    2    1    2    0    0 -0.64196391409E+02  0.92707991358E+01 -0.35217416841E+02  0.11746705416E+03  0.91384451512E+02 0.  0.
          5    1    3    3  502    0 -0.16702225756E+02  0.37295381258E+02 -0.16571157098E+02  0.44346398455E+02  0.47000000000E+01 0.  1.
         -5    1    3    3    0  502  0.80898617165E+02 -0.46566180394E+02 -0.11701163596E+03  0.14975582915E+03  0.47000000000E+01 0.  1.
          5    1    4    4  503    0 -0.89615501683E+01  0.21268733362E+02  0.25271952602E+02  0.34546056049E+02  0.47000000000E+01 0. -1.
         -5    1    4    4    0  503 -0.55234841241E+02 -0.11997934226E+02 -0.60489369443E+02  0.82920998114E+02  0.47000000000E+01 0.  1.
<mgrwt>
<rscale>  0 0.13300651E+03</rscale>
<asrwt>0</asrwt>
<pdfrwt beam="1">  1        3 0.10982236E-01 0.14082369E+03</pdfrwt>
<pdfrwt beam="2">  1       -3 0.36951499E-01 0.14082369E+03</pdfrwt>
<totfact> 0.10584219E+03</totfact>
</mgrwt>
</event>
<event>
 8    1  0.3551276E-004  0.1622406E+03  0.7546771E-02  0.1193208E+00
          1   -1    0    0  501    0  0.00000000000E+00  0.00000000000E+00  0.41791732995E+02  0.41791732995E+02  0.00000000000E+00 0. -1.
         -1   -1    0    0    0  501 -0.00000000000E+00 -0.00000000000E+00 -0.58201510797E+03  0.58201510797E+03  0.00000000000E+00 0.  1.
         25    2    1    2    0    0  0.10069317160E+03  0.23677007505E+02 -0.20864700281E+03  0.26430205954E+03  0.12498916516E+03 0.  0.
         23    2    1    2    0    0 -0.10069317160E+03 -0.23677007505E+02 -0.33157637217E+03  0.35950478143E+03  0.92742017426E+02 0.  0.
          5    1    3    3  502    0  0.11209225506E+03  0.56053213462E+02 -0.17980779308E+03  0.21922492750E+03  0.47000000000E+01 0.  1.
         -5    1    3    3    0  502 -0.11399083459E+02 -0.32376205957E+02 -0.28839209725E+02  0.45077132045E+02  0.47000000000E+01 0.  1.
          5    1    4    4  503    0 -0.74145683113E+02  0.65267405399E+01 -0.10184172788E+03  0.12622998140E+03  0.47000000000E+01 0. -1.
         -5    1    4    4    0  503 -0.26547488483E+02 -0.30203748045E+02 -0.22973464429E+03  0.23327480003E+03  0.47000000000E+01 0.  1.
<mgrwt>
<rscale>  0 0.15606896E+03</rscale>
<asrwt>0</asrwt>
<pdfrwt beam="1">  1        1 0.64294973E-02 0.16224058E+03</pdfrwt>
<pdfrwt beam="2">  1       -1 0.89540787E-01 0.16224058E+03</pdfrwt>
<totfact> 0.14834106E+03</totfact>
</mgrwt>
</event>
<event>
 8    1  0.3551276E-004  0.1409006E+03  0.7546771E-02  0.1222861E+00
          1   -1    0    0  501    0  0.00000000000E+00  0.00000000000E+00  0.16595821418E+02  0.16595821418E+02  0.00000000000E+00 0. -1.
         -1   -1    0    0    0  501 -0.00000000000E+00 -0.00000000000E+00 -0.99800170520E+03  0.99800170520E+03  0.00000000000E+00 0.  1.
         25    2    1    2    0    0 -0.64978631449E+02 -0.25420718115E+01 -0.63433408193E+03  0.64979434655E+03  0.12499712249E+03 0.  0.
         23    2    1    2    0    0  0.64978631449E+02  0.25420718115E+01 -0.34707180185E+03  0.36480318007E+03  0.91617901501E+02 0.  0.
          5    1    4    4  502    0  0.24366813636E+02 -0.14387281342E+02 -0.20524656871E+02  0.35271617639E+02  0.47000000000E+01 0. -1.
         -5    1    4    4    0  502  0.40611817814E+02  0.16929353154E+02 -0.32654714498E+03  0.32953156243E+03  0.47000000000E+01 0.  1.
          5    1    3    3  503    0 -0.54571283751E+02  0.52088008713E+02 -0.24254027042E+03  0.25404538657E+03  0.47000000000E+01 0. -1.
         -5    1    3    3    0  503 -0.10407347698E+02 -0.54630080525E+02 -0.39179381152E+03  0.39574895998E+03  0.47000000000E+01 0. -1.
<mgrwt>
<rscale>  0 0.13314590E+03</rscale>
<asrwt>0</asrwt>
<pdfrwt beam="1">  1        1 0.25532022E-02 0.14090055E+03</pdfrwt>
<pdfrwt beam="2">  1       -1 0.15353879E+00 0.14090055E+03</pdfrwt>
<totfact> 0.14854253E+03</totfact>
</mgrwt>
</event>
<event>
 8    1  0.3551276E-004  0.1414272E+03  0.7546771E-02  0.1222570E+00
          2   -1    0    0  501    0  0.00000000000E+00  0.00000000000E+00  0.10451159519E+04  0.10451159519E+04  0.00000000000E+00 0. -1.
         -2   -1    0    0    0  501 -0.00000000000E+00 -0.00000000000E+00 -0.20099077277E+02  0.20099077277E+02  0.00000000000E+00 0.  1.
         25    2    1    2    0    0 -0.65482536040E+02 -0.95655009526E+01  0.81621167487E+03  0.82837380399E+03  0.12498879795E+03 0.  0.
         23    2    1    2    0    0  0.65482536040E+02  0.95655009526E+01  0.20880519974E+03  0.23684122517E+03  0.90081591725E+02 0.  0.
          5    1    4    4  502    0  0.50979495474E+01 -0.30585053391E+02  0.10875508833E+03  0.11318654433E+03  0.47000000000E+01 0. -1.
         -5    1    4    4    0  502  0.60384586493E+02  0.40150554343E+02  0.10005011141E+03  0.12365468084E+03  0.47000000000E+01 0.  1.
          5    1    3    3  503    0 -0.75253384897E+02 -0.29059164493E+02  0.78927329825E+03  0.79339897676E+03  0.47000000000E+01 0.  1.
         -5    1    3    3    0  503  0.97708488571E+01  0.19493663540E+02  0.26938376618E+02  0.34974827239E+02  0.47000000000E+01 0.  1.
<mgrwt>
<rscale>  0 0.13334850E+03</rscale>
<asrwt>0</asrwt>
<pdfrwt beam="1">  1        2 0.16078703E+00 0.14142723E+03</pdfrwt>
<pdfrwt beam="2">  1       -2 0.30921665E-02 0.14142723E+03</pdfrwt>
<totfact> 0.96570061E+03</totfact>
</mgrwt>
</event>
<event>
 8    1  0.3551276E-004  0.1356864E+03  0.7546771E-02  0.1232679E+00
         -4   -1    0    0    0  501 -0.00000000000E+00  0.00000000000E+00  0.34865006614E+03  0.34865006614E+03  0.00000000000E+00 0. -1.
          4   -1    0    0  501    0  0.00000000000E+00 -0.00000000000E+00 -0.45952821533E+02  0.45952821533E+02  0.00000000000E+00 0.  1.
         25    2    1    2    0    0  0.74880031872E+01 -0.52235505568E+02  0.10399314310E+03  0.17095433419E+03  0.12500476924E+03 0.  0.
         23    2    1    2    0    0 -0.74880031872E+01  0.52235505568E+02  0.19870410151E+03  0.22364855348E+03  0.88038271704E+02 0.  0.
          5    1    4    4  502    0 -0.46522413346E+02  0.39780618213E+02  0.12025426809E+03  0.13501855992E+03  0.47000000000E+01 0. -1.
         -5    1    3    3    0  503  0.47739943297E+02  0.76469392762E+01  0.56694666444E+01  0.48906141928E+02  0.47000000000E+01 0. -1.
          5    1    3    3  503    0 -0.40251940110E+02 -0.59882444845E+02  0.98323676458E+02  0.12204819227E+03  0.47000000000E+01 0. -1.
         -5    1    4    4    0  502  0.39034410159E+02  0.12454887356E+02  0.78449833417E+02  0.88629993561E+02  0.47000000000E+01 0.  1.
<mgrwt>
<rscale>  0 0.12654165E+03</rscale>
<asrwt>0</asrwt>
<pdfrwt beam="1">  1        4 0.70696651E-02 0.13568644E+03</pdfrwt>
<pdfrwt beam="2">  1       -4 0.53638470E-01 0.13568644E+03</pdfrwt>
<totfact> 0.75300664E+02</totfact>
</mgrwt>
</event>
<event>
 8    1  0.3551276E-004  0.1732197E+03  0.7546771E-02  0.1180742E+00
         -2   -1    0    0    0  501 -0.00000000000E+00  0.00000000000E+00  0.41543064984E+03  0.41543064984E+03  0.00000000000E+00 0.  1.
          2   -1    0    0  501    0  0.00000000000E+00 -0.00000000000E+00 -0.10733861313E+03  0.10733861313E+03  0.00000000000E+00 0. -1.
         25    2    1    2    0    0  0.81888938966E+02 -0.87602486683E+02 -0.72032017498E+01  0.17336942712E+03  0.12500031259E+03 0.  0.
         23    2    1    2    0    0 -0.81888938966E+02  0.87602486683E+02  0.31529523846E+03  0.34939983584E+03  0.91044845520E+02 0.  0.
          5    1    3    3  502    0 -0.31708303037E+02 -0.44637157054E+01 -0.75857288312E+00  0.32372931165E+02  0.47000000000E+01 0. -1.
         -5    1    4    4    0  503 -0.17132099430E+02 -0.11726699638E+02  0.11200004159E+03  0.11400492810E+03  0.47000000000E+01 0.  1.
          5    1    4    4  503    0 -0.64756839536E+02  0.99329186321E+02  0.20329519687E+03  0.23539490775E+03  0.47000000000E+01 0. -1.
         -5    1    3    3    0  502  0.11359724200E+03 -0.83138770978E+02 -0.64446288666E+01  0.14099649596E+03  0.47000000000E+01 0. -1.
<mgrwt>
<rscale>  0 0.16725435E+03</rscale>
<asrwt>0</asrwt>
<pdfrwt beam="1">  1        2 0.16513633E-01 0.17321972E+03</pdfrwt>
<pdfrwt beam="2">  1       -2 0.63912407E-01 0.17321972E+03</pdfrwt>
<totfact> 0.79762289E+02</totfact>
</mgrwt>
</event>
<event>
 8    1  0.3551276E-004  0.1420404E+03  0.7546771E-02  0.1221223E+00
          2   -1    0    0  501    0  0.00000000000E+00  0.00000000000E+00  0.57995383102E+02  0.57995383102E+02  0.00000000000E+00 0. -1.
         -2   -1    0    0    0  501 -0.00000000000E+00 -0.00000000000E+00 -0.37922838440E+03  0.37922838440E+03  0.00000000000E+00 0.  1.
         25    2    1    2    0    0  0.53744562012E+02 -0.40839537186E+02 -0.28441151884E+03  0.31790783707E+03  0.12497653811E+03 0.  0.
         23    2    1    2    0    0 -0.53744562012E+02  0.40839537186E+02 -0.36821482460E+02  0.11931593044E+03  0.91236637059E+02 0.  0.
          5    1    4    4  502    0  0.19813044455E+02 -0.69706658149E+01  0.48742899766E+01  0.22067977145E+02  0.47000000000E+01 0. -1.
         -5    1    3    3    0  503  0.25329538912E+02 -0.53637232970E+02 -0.27979846214E+03  0.28605560249E+03  0.47000000000E+01 0. -1.
          5    1    3    3  503    0  0.28415023100E+02  0.12797695785E+02 -0.46130566977E+01  0.31852234572E+02  0.47000000000E+01 0. -1.
         -5    1    4    4    0  502 -0.73557606467E+02  0.47810203001E+02 -0.41695772436E+02  0.97247953291E+02  0.47000000000E+01 0.  1.
<mgrwt>
<rscale>  0 0.13429209E+03</rscale>
<asrwt>0</asrwt>
<pdfrwt beam="1">  1        2 0.89223668E-02 0.14204042E+03</pdfrwt>
<pdfrwt beam="2">  1       -2 0.58342827E-01 0.14204042E+03</pdfrwt>
<totfact> 0.20068518E+03</totfact>
</mgrwt>
</event>
<event>
 8    1  0.3551276E-004  0.1419662E+03  0.7546771E-02  0.1220520E+00
          1   -1    0    0  501    0  0.00000000000E+00  0.00000000000E+00  0.29067573556E+02  0.29067573556E+02  0.00000000000E+00 0. -1.
         -1   -1    0    0    0  501 -0.00000000000E+00 -0.00000000000E+00 -0.57462991053E+03  0.57462991053E+03  0.00000000000E+00 0.  1.
         25    2    1    2    0    0  0.43282128880E+02  0.51531448089E+02 -0.27234661989E+03  0.30712712602E+03  0.12500222938E+03 0.  0.
         23    2    1    2    0    0 -0.43282128880E+02 -0.51531448089E+02 -0.27321571709E+03  0.29657035807E+03  0.93692669933E+02 0.  0.
          5    1    4    4  502    0 -0.40321296905E+02 -0.21849298459E+02 -0.38909128718E+02  0.60325857846E+02  0.47000000000E+01 0. -1.
         -5    1    3    3    0  503 -0.15505417752E+02  0.54253997098E+02 -0.45248629863E+02  0.72480636623E+02  0.47000000000E+01 0.  1.
          5    1    3    3  503    0  0.58787546632E+02 -0.27225490090E+01 -0.22709799003E+03  0.23464648940E+03  0.47000000000E+01 0.  1.
         -5    1    4    4    0  502 -0.29608319754E+01 -0.29682149630E+02 -0.23430658837E+03  0.23624450022E+03  0.47000000000E+01 0.  1.
<mgrwt>
<rscale>  0 0.13478739E+03</rscale>
<asrwt>0</asrwt>
<pdfrwt beam="1">  1        1 0.44719343E-02 0.14196616E+03</pdfrwt>
<pdfrwt beam="2">  1       -1 0.88404604E-01 0.14196616E+03</pdfrwt>
<totfact> 0.24898031E+03</totfact>
</mgrwt>
</event>
<event>
 8    1  0.3551276E-004  0.2391601E+03  0.7546771E-02  0.1123110E+00
         -2   -1    0    0    0  501 -0.00000000000E+00  0.00000000000E+00  0.19676650166E+02  0.19676650166E+02  0.00000000000E+00 0.  1.
          2   -1    0    0  501    0  0.00000000000E+00 -0.00000000000E+00 -0.27218401990E+04  0.27218401990E+04  0.00000000000E+00 0. -1.
         25    2    1    2    0    0 -0.12696709028E+02  0.20349563740E+03 -0.14548252573E+04  0.14743520884E+04  0.12500348157E+03 0.  0.
         23    2    1    2    0    0  0.12696709028E+02 -0.20349563740E+03 -0.12473382916E+04  0.12671647608E+04  0.91005695195E+02 0.  0.
          5    1    3    3  502    0  0.37415736072E+02  0.22512202903E+02 -0.15794390897E+03  0.16393628325E+03  0.47000000000E+01 0. -1.
         -5    1    4    4    0  503 -0.29376105398E+02 -0.13429779421E+03 -0.65418365870E+03  0.66848874516E+03  0.47000000000E+01 0.  1.
          5    1    4    4  503    0  0.42072814426E+02 -0.69197843195E+02 -0.59315463289E+03  0.59867601567E+03  0.47000000000E+01 0. -1.
         -5    1    3    3    0  502 -0.50112445100E+02  0.18098343450E+03 -0.12968813483E+04  0.13104158051E+04  0.47000000000E+01 0. -1.
<mgrwt>
<rscale>  0 0.23508706E+03</rscale>
<asrwt>0</asrwt>
<pdfrwt beam="1">  1        2 0.41874448E+00 0.23916010E+03</pdfrwt>
<pdfrwt beam="2">  1       -2 0.30271781E-02 0.23916010E+03</pdfrwt>
<totfact> 0.12669452E+03</totfact>
</mgrwt>
</event>
<event>
 8    1  0.3551276E-004  0.1596104E+03  0.7546771E-02  0.1196853E+00
          2   -1    0    0  501    0  0.00000000000E+00  0.00000000000E+00  0.70875029843E+03  0.70875029843E+03  0.00000000000E+00 0. -1.
         -2   -1    0    0    0  501 -0.00000000000E+00 -0.00000000000E+00 -0.32557648366E+02  0.32557648366E+02  0.00000000000E+00 0.  1.
         25    2    1    2    0    0 -0.83069429068E+02  0.54310457742E+02  0.27333979414E+03  0.31652823188E+03  0.12500129060E+03 0.  0.
         23    2    1    2    0    0  0.83069429068E+02 -0.54310457742E+02  0.40285285593E+03  0.42477971492E+03  0.91089114663E+02 0.  0.
          5    1    4    4  502    0  0.68429017083E+02 -0.30505148518E+02  0.38273072688E+03  0.39002306825E+03  0.47000000000E+01 0. -1.
         -5    1    4    4    0  502  0.14640411984E+02 -0.23805309224E+02  0.20122129042E+02  0.34756646666E+02  0.47000000000E+01 0.  1.
          5    1    3    3  503    0 -0.47425046851E+02 -0.16748578988E+02  0.26262204649E+02  0.56933675096E+02  0.47000000000E+01 0.  1.
         -5    1    3    3    0  503 -0.35644382217E+02  0.71059036730E+02  0.24707758949E+03  0.25959455678E+03  0.47000000000E+01 0.  1.
<mgrwt>
<rscale>  0 0.15298457E+03</rscale>
<asrwt>0</asrwt>
<pdfrwt beam="1">  1        2 0.10903850E+00 0.15961040E+03</pdfrwt>
<pdfrwt beam="2">  1       -2 0.50088695E-02 0.15961040E+03</pdfrwt>
<totfact> 0.78297429E+03</totfact>
</mgrwt>
</event>
<event>
 8    1  0.3551276E-004  0.4008346E+03  0.7546771E-02  0.1044369E+00
         -2   -1    0    0    0  501 -0.00000000000E+00  0.00000000000E+00  0.13295619374E+03  0.13295619374E+03  0.00000000000E+00 0.  1.
          2   -1    0    0  501    0  0.00000000000E+00 -0.00000000000E+00 -0.14442762015E+04  0.14442762015E+04  0.00000000000E+00 0. -1.
         25    2    1    2    0    0 -0.20602832807E+03 -0.32030572987E+03 -0.10007886908E+04  0.10780753157E+04  0.12499980114E+03 0.  0.
         23    2    1    2    0    0  0.20602832807E+03  0.32030572987E+03 -0.31053131696E+03  0.49915707947E+03  0.87662184620E+02 0.  0.
          5    1    4    4  502    0  0.15486319347E+03  0.18423026542E+03 -0.15550553390E+03  0.28657889047E+03  0.47000000000E+01 0. -1.
         -5    1    3    3    0  503 -0.19584952912E+03 -0.22047432971E+03 -0.66250528252E+03  0.72519053185E+03  0.47000000000E+01 0. -1.
          5    1    3    3  503    0 -0.10178798953E+02 -0.99831400163E+02 -0.33828340824E+03  0.35288478388E+03  0.47000000000E+01 0. -1.
         -5    1    4    4    0  502  0.51165134601E+02  0.13607546445E+03 -0.15502578306E+03  0.21257818900E+03  0.47000000000E+01 0.  1.
<mgrwt>
<rscale>  0 0.39830318E+03</rscale>
<asrwt>0</asrwt>
<pdfrwt beam="1">  1        2 0.22219634E+00 0.40083461E+03</pdfrwt>
<pdfrwt beam="2">  1       -2 0.20454799E-01 0.40083461E+03</pdfrwt>
<totfact> 0.29232053E+02</totfact>
</mgrwt>
</event>
<event>
 8    1  0.3551276E-004  0.1601145E+03  0.7546771E-02  0.1196063E+00
         -1   -1    0    0    0  501 -0.00000000000E+00  0.00000000000E+00  0.40216920388E+02  0.40216920388E+02  0.00000000000E+00 0. -1.
          1   -1    0    0  501    0  0.00000000000E+00 -0.00000000000E+00 -0.60324262095E+03  0.60324262095E+03  0.00000000000E+00 0.  1.
         25    2    1    2    0    0 -0.26267066198E+02  0.96549286697E+02 -0.40274306445E+03  0.43340352530E+03  0.12499966501E+03 0.  0.
         23    2    1    2    0    0  0.26267066198E+02 -0.96549286697E+02 -0.16028263612E+03  0.21005601604E+03  0.91767548218E+02 0.  0.
          5    1    4    4  502    0  0.39194841690E+02 -0.10616278909E+02 -0.21351943952E+02  0.46118721833E+02  0.47000000000E+01 0. -1.
         -5    1    3    3    0  503  0.16560840502E+02 -0.12376625410E+02 -0.18447787132E+03  0.18569226506E+03  0.47000000000E+01 0.  1.
          5    1    3    3  503    0 -0.42827906700E+02  0.10892591211E+03 -0.21826519313E+03  0.24771126024E+03  0.47000000000E+01 0.  1.
         -5    1    4    4    0  502 -0.12927775493E+02 -0.85933007788E+02 -0.13893069216E+03  0.16393729421E+03  0.47000000000E+01 0.  1.
<mgrwt>
<rscale>  0 0.15364642E+03</rscale>
<asrwt>0</asrwt>
<pdfrwt beam="1">  1        1 0.92806554E-01 0.16011446E+03</pdfrwt>
<pdfrwt beam="2">  1       -1 0.61872187E-02 0.16011446E+03</pdfrwt>
<totfact> 0.43477296E+03</totfact>
</mgrwt>
</event>
<event>
 8    1  0.3551276E-004  0.1422742E+03  0.7546771E-02  0.1220943E+00
         -2   -1    0    0    0  501 -0.00000000000E+00  0.00000000000E+00  0.13002987686E+03  0.13002987686E+03  0.00000000000E+00 0.  1.
          2   -1    0    0  501    0  0.00000000000E+00 -0.00000000000E+00 -0.17237107782E+03  0.17237107782E+03  0.00000000000E+00 0. -1.
         25    2    1    2    0    0 -0.59515636443E+02 -0.32799287907E+02 -0.10107188375E+03  0.17452073680E+03  0.12499623042E+03 0.  0.
         23    2    1    2    0    0  0.59515636443E+02  0.32799287907E+02  0.58730682798E+02  0.12788021788E+03  0.91028307439E+02 0.  0.
          5    1    3    3  502    0 -0.31249616860E+02 -0.26646144477E+02 -0.12813000877E+03  0.13463262872E+03  0.47000000000E+01 0.  1.
         -5    1    3    3    0  502 -0.28266019584E+02 -0.61531434296E+01  0.27058125011E+02  0.39888108081E+02  0.47000000000E+01 0.  1.
          5    1    4    4  503    0  0.27828343616E+02 -0.19165181752E+02  0.57457582322E+02  0.66822037280E+02  0.47000000000E+01 0. -1.
         -5    1    4    4    0  503  0.31687292827E+02  0.51964469658E+02  0.12731004760E+01  0.61058180602E+02  0.47000000000E+01 0.  1.
<mgrwt>
<rscale>  0 0.13448861E+03</rscale>
<asrwt>0</asrwt>
<pdfrwt beam="1">  1        2 0.26518627E-01 0.14227425E+03</pdfrwt>
<pdfrwt beam="2">  1       -2 0.20004597E-01 0.14227425E+03</pdfrwt>
<totfact> 0.40678735E+03</totfact>
</mgrwt>
</event>
<event>
 8    1  0.3551276E-004  0.1626460E+03  0.7546771E-02  0.1192935E+00
         -2   -1    0    0    0  501 -0.00000000000E+00  0.00000000000E+00  0.97783406179E+02  0.97783406179E+02  0.00000000000E+00 0.  1.
          2   -1    0    0  501    0  0.00000000000E+00 -0.00000000000E+00 -0.24779653105E+03  0.24779653105E+03  0.00000000000E+00 0. -1.
         25    2    1    2    0    0  0.74424501850E+02 -0.72728168428E+02 -0.37364430888E+02  0.16688269787E+03  0.12500136477E+03 0.  0.
         23    2    1    2    0    0 -0.74424501850E+02  0.72728168428E+02 -0.11264869399E+03  0.17869723936E+03  0.91731031499E+02 0.  0.
          5    1    4    4  502    0 -0.21272467480E+02 -0.13573312735E+02 -0.58057423474E+02  0.63478398781E+02  0.47000000000E+01 0. -1.
         -5    1    3    3    0  503  0.10088029059E+03 -0.20355753523E+02 -0.31495802596E+02  0.10772773697E+03  0.47000000000E+01 0. -1.
          5    1    3    3  503    0 -0.26455788743E+02 -0.52372414905E+02 -0.58686282919E+01  0.59154960900E+02  0.47000000000E+01 0. -1.
         -5    1    4    4    0  502 -0.53152034369E+02  0.86301481163E+02 -0.54591270513E+02  0.11521884058E+03  0.47000000000E+01 0.  1.
<mgrwt>
<rscale>  0 0.15630276E+03</rscale>
<asrwt>0</asrwt>
<pdfrwt beam="1">  1        2 0.38122543E-01 0.16264604E+03</pdfrwt>
<pdfrwt beam="2">  1       -2 0.15043601E-01 0.16264604E+03</pdfrwt>
<totfact> 0.44476531E+03</totfact>
</mgrwt>
</event>
<event>
 8    1  0.3551276E-004  0.1703852E+03  0.7546771E-02  0.1183758E+00
         -1   -1    0    0    0  501 -0.00000000000E+00  0.00000000000E+00  0.13711793769E+03  0.13711793769E+03  0.00000000000E+00 0.  1.
          1   -1    0    0  501    0  0.00000000000E+00 -0.00000000000E+00 -0.19271065249E+03  0.19271065249E+03  0.00000000000E+00 0. -1.
         25    2    1    2    0    0 -0.10203098262E+03 -0.54740046880E+02 -0.63285111128E+02  0.18175840842E+03  0.12499727834E+03 0.  0.
         23    2    1    2    0    0  0.10203098262E+03  0.54740046880E+02  0.76923963213E+01  0.14807018176E+03  0.91971797961E+02 0.  0.
          5    1    4    4  502    0  0.69119803111E+02  0.19583376516E+00 -0.28200554374E+02  0.74799377002E+02  0.47000000000E+01 0. -1.
         -5    1    4    4    0  502  0.32911179508E+02  0.54544213115E+02  0.35892950695E+02  0.73270804763E+02  0.47000000000E+01 0.  1.
          5    1    3    3  503    0 -0.17954516341E+02 -0.77457224611E+02 -0.48618128325E+02  0.93315586605E+02  0.47000000000E+01 0. -1.
         -5    1    3    3    0  503 -0.84076466277E+02  0.22717177731E+02 -0.14666982803E+02  0.88442821813E+02  0.47000000000E+01 0. -1.
<mgrwt>
<rscale>  0 0.16445386E+03</rscale>
<asrwt>0</asrwt>
<pdfrwt beam="1">  1        1 0.29647793E-01 0.17038519E+03</pdfrwt>
<pdfrwt beam="2">  1       -1 0.21095067E-01 0.17038519E+03</pdfrwt>
<totfact> 0.27792373E+03</totfact>
</mgrwt>
</event>
<event>
 8    1  0.3951026E-004  0.2238413E+03  0.7546771E-02  0.1134196E+00
          2   -1    0    0  501    0  0.00000000000E+00  0.00000000000E+00  0.18855987053E+04  0.18855987053E+04  0.00000000000E+00 0.  1.
         -2   -1    0    0    0  501 -0.00000000000E+00 -0.00000000000E+00 -0.25507089737E+02  0.25507089737E+02  0.00000000000E+00 0. -1.
         25    2    1    2    0    0  0.10106992629E+03  0.15578966940E+03  0.78880633552E+03  0.81995144221E+03  0.12497752407E+03 0.  0.
         23    2    1    2    0    0 -0.10106992629E+03 -0.15578966940E+03  0.10712852800E+04  0.10911543528E+04  0.92087563647E+02 0.  0.
          5    1    3    3  502    0  0.12675454222E+03  0.15115059595E+03  0.69613793637E+03  0.72356294342E+03  0.47000000000E+01 0. -1.
         -5    1    3    3    0  502 -0.25684615930E+02  0.46390734551E+01  0.92668399153E+02  0.96388498793E+02  0.47000000000E+01 0. -1.
          5    1    4    4  503    0 -0.80233814118E+02 -0.51435910610E+02  0.38480942544E+03  0.39646374580E+03  0.47000000000E+01 0. -1.
         -5    1    4    4    0  503 -0.20836112170E+02 -0.10435375879E+03  0.68647585460E+03  0.69469060703E+03  0.47000000000E+01 0.  1.
<mgrwt>
<rscale>  0 0.21958131E+03</rscale>
<asrwt>0</asrwt>
<pdfrwt beam="1">  1        2 0.29009200E+00 0.22384131E+03</pdfrwt>
<pdfrwt beam="2">  1       -2 0.39241691E-02 0.22384131E+03</pdfrwt>
<totfact> 0.24174205E+03</totfact>
</mgrwt>
</event>
<event>
 8    1  0.3551276E-004  0.1426050E+03  0.7546771E-02  0.1220315E+00
          3   -1    0    0  501    0  0.00000000000E+00  0.00000000000E+00  0.11786839086E+03  0.11786839086E+03  0.00000000000E+00 0. -1.
         -3   -1    0    0    0  501 -0.00000000000E+00 -0.00000000000E+00 -0.14349760601E+03  0.14349760601E+03  0.00000000000E+00 0.  1.
         25    2    1    2    0    0  0.50134016776E+01 -0.68453196581E+02  0.61152756769E+01  0.14273604330E+03  0.12500082857E+03 0.  0.
         23    2    1    2    0    0 -0.50134016776E+01  0.68453196581E+02 -0.31744490825E+02  0.11862995357E+03  0.91402291372E+02 0.  0.
          5    1    3    3  502    0 -0.14415680125E+02 -0.98146020254E+02 -0.16101747956E+02  0.10060720358E+03  0.47000000000E+01 0. -1.
         -5    1    3    3    0  502  0.19429081802E+02  0.29692823673E+02  0.22217023632E+02  0.42128839724E+02  0.47000000000E+01 0. -1.
          5    1    4    4  503    0  0.11441540051E+02  0.21752596984E+02  0.30179719066E+02  0.39204460935E+02  0.47000000000E+01 0. -1.
         -5    1    4    4    0  503 -0.16454941728E+02  0.46700599597E+02 -0.61924209891E+02  0.79425492637E+02  0.47000000000E+01 0.  1.
<mgrwt>
<rscale>  0 0.13493238E+03</rscale>
<asrwt>0</asrwt>
<pdfrwt beam="1">  1        3 0.18133599E-01 0.14260498E+03</pdfrwt>
<pdfrwt beam="2">  1       -3 0.22076555E-01 0.14260498E+03</pdfrwt>
<totfact> 0.11650258E+03</totfact>
</mgrwt>
</event>
<event>
 8    1  0.3551276E-004  0.1274460E+03  0.7546771E-02  0.1245257E+00
          1   -1    0    0  501    0  0.00000000000E+00  0.00000000000E+00  0.27218433181E+03  0.27218433181E+03  0.00000000000E+00 0. -1.
         -1   -1    0    0    0  501 -0.00000000000E+00 -0.00000000000E+00 -0.53457080968E+02  0.53457080968E+02  0.00000000000E+00 0.  1.
         25    2    1    2    0    0 -0.19695334678E+02  0.15154939733E+02  0.18362161373E+03  0.22351592553E+03  0.12499957413E+03 0.  0.
         23    2    1    2    0    0  0.19695334678E+02 -0.15154939733E+02  0.35105637111E+02  0.10212548724E+03  0.92626297461E+02 0.  0.
          5    1    3    3  502    0 -0.30037639950E+02 -0.67726048270E+01 -0.64814520289E+01  0.31815518388E+02  0.47000000000E+01 0.  1.
         -5    1    3    3    0  502  0.10342305272E+02  0.21927544560E+02  0.19010306576E+03  0.19170040715E+03  0.47000000000E+01 0.  1.
          5    1    4    4  503    0  0.42071037711E+02 -0.11873193348E+02  0.55850103398E+02  0.71079314740E+02  0.47000000000E+01 0. -1.
         -5    1    4    4    0  503 -0.22375703033E+02 -0.32817463845E+01 -0.20744466287E+02  0.31046172503E+02  0.47000000000E+01 0.  1.
<mgrwt>
<rscale>  0 0.11870023E+03</rscale>
<asrwt>0</asrwt>
<pdfrwt beam="1">  1        1 0.41874512E-01 0.12744596E+03</pdfrwt>
<pdfrwt beam="2">  1       -1 0.82241665E-02 0.12744596E+03</pdfrwt>
<totfact> 0.77340338E+03</totfact>
</mgrwt>
</event>
<event>
 8    1  0.3551276E-004  0.1341645E+03  0.7546771E-02  0.1234328E+00
         -3   -1    0    0    0  501 -0.00000000000E+00  0.00000000000E+00  0.72263603318E+03  0.72263603318E+03  0.00000000000E+00 0.  1.
          3   -1    0    0  501    0  0.00000000000E+00 -0.00000000000E+00 -0.22857009728E+02  0.22857009728E+02  0.00000000000E+00 0. -1.
         25    2    1    2    0    0 -0.17035274350E+02  0.45653573788E+02  0.53328336695E+03  0.54990114465E+03  0.12500268018E+03 0.  0.
         23    2    1    2    0    0  0.17035274350E+02 -0.45653573788E+02  0.16649565650E+03  0.19559189825E+03  0.90337908197E+02 0.  0.
          5    1    4    4  502    0 -0.30639794811E+02  0.60725775221E+01  0.42481401724E+02  0.52938008238E+02  0.47000000000E+01 0. -1.
         -5    1    3    3    0  503  0.36989125936E+02 -0.12693674416E+02  0.31658918090E+03  0.31902997394E+03  0.47000000000E+01 0.  1.
          5    1    3    3  503    0 -0.54024400286E+02  0.58347248204E+02  0.21669418605E+03  0.23087117072E+03  0.47000000000E+01 0.  1.
         -5    1    4    4    0  502  0.47675069161E+02 -0.51726151310E+02  0.12401425477E+03  0.14265389001E+03  0.47000000000E+01 0.  1.
<mgrwt>
<rscale>  0 0.12547569E+03</rscale>
<asrwt>0</asrwt>
<pdfrwt beam="1">  1        3 0.35164636E-02 0.13416452E+03</pdfrwt>
<pdfrwt beam="2">  1       -3 0.11117476E+00 0.13416452E+03</pdfrwt>
<totfact> 0.65102962E+02</totfact>
</mgrwt>
</event>
<event>
 8    1  0.3551276E-004  0.1307784E+03  0.7546771E-02  0.1241743E+00
         -2   -1    0    0    0  501 -0.00000000000E+00  0.00000000000E+00  0.18883838639E+02  0.18883838639E+02  0.00000000000E+00 0.  1.
          2   -1    0    0  501    0  0.00000000000E+00 -0.00000000000E+00 -0.72676196870E+03  0.72676196870E+03  0.00000000000E+00 0. -1.
         25    2    1    2    0    0  0.69993442210E+01  0.37781557595E+02 -0.30880736714E+03  0.33535799255E+03  0.12500622487E+03 0.  0.
         23    2    1    2    0    0 -0.69993442210E+01 -0.37781557595E+02 -0.39907076293E+03  0.41028781479E+03  0.87190482447E+02 0.  0.
          5    1    3    3  502    0  0.10621775998E+02  0.69251330499E+02 -0.28965224343E+03  0.29804207928E+03  0.47000000000E+01 0. -1.
         -5    1    3    3    0  502 -0.36224317767E+01 -0.31469772904E+02 -0.19155123707E+02  0.37315913265E+02  0.47000000000E+01 0. -1.
          5    1    4    4  503    0 -0.24616185674E+02 -0.57906334108E+02 -0.33173671432E+03  0.33768393174E+03  0.47000000000E+01 0. -1.
         -5    1    4    4    0  503  0.17616841453E+02  0.20124776513E+02 -0.67334048608E+02  0.72603883054E+02  0.47000000000E+01 0.  1.
<mgrwt>
<rscale>  0 0.12082436E+03</rscale>
<asrwt>0</asrwt>
<pdfrwt beam="1">  1        2 0.11180954E+00 0.13077841E+03</pdfrwt>
<pdfrwt beam="2">  1       -2 0.29052057E-02 0.13077841E+03</pdfrwt>
<totfact> 0.16849970E+04</totfact>
</mgrwt>
</event>
<event>
 8    1  0.3551276E-004  0.1291298E+03  0.7546771E-02  0.1242948E+00
          2   -1    0    0  501    0  0.00000000000E+00  0.00000000000E+00  0.82525947416E+03  0.82525947416E+03  0.00000000000E+00 0. -1.
         -2   -1    0    0    0  501 -0.00000000000E+00 -0.00000000000E+00 -0.15705386601E+02  0.15705386601E+02  0.00000000000E+00 0.  1.
         25    2    1    2    0    0 -0.23289372245E+02  0.22512846542E+02  0.40751738369E+03  0.42748674504E+03  0.12500110423E+03 0.  0.
         23    2    1    2    0    0  0.23289372245E+02 -0.22512846542E+02  0.40203670387E+03  0.41347811572E+03  0.91002295576E+02 0.  0.
          5    1    3    3  502    0 -0.42243547736E+02 -0.19985934645E+02  0.56979641662E+02  0.73842565455E+02  0.47000000000E+01 0.  1.
         -5    1    3    3    0  502  0.18954175492E+02  0.42498781187E+02  0.35053774203E+03  0.35364417959E+03  0.47000000000E+01 0.  1.
          5    1    4    4  503    0  0.38569372885E+02  0.22237406627E+02  0.13452628708E+03  0.14177979649E+03  0.47000000000E+01 0. -1.
         -5    1    4    4    0  503 -0.15280000640E+02 -0.44750253169E+02  0.26751041679E+03  0.27169831923E+03  0.47000000000E+01 0.  1.
<mgrwt>
<rscale>  0 0.12009052E+03</rscale>
<asrwt>0</asrwt>
<pdfrwt beam="1">  1        2 0.12696296E+00 0.12912978E+03</pdfrwt>
<pdfrwt beam="2">  1       -2 0.24162140E-02 0.12912978E+03</pdfrwt>
<totfact> 0.18856870E+04</totfact>
</mgrwt>
</event>
<event>
 8    1  0.3551276E-004  0.1407230E+03  0.7546771E-02  0.1223767E+00
          1   -1    0    0  501    0  0.00000000000E+00  0.00000000000E+00  0.15404956242E+03  0.15404956242E+03  0.00000000000E+00 0. -1.
         -1   -1    0    0    0  501 -0.00000000000E+00 -0.00000000000E+00 -0.15817725914E+03  0.15817725914E+03  0.00000000000E+00 0.  1.
         25    2    1    2    0    0  0.63509176515E+02 -0.11995688788E+02 -0.94368262202E+02  0.16943530001E+03  0.12500255969E+03 0.  0.
         23    2    1    2    0    0 -0.63509176515E+02  0.11995688788E+02  0.90240565481E+02  0.14279152155E+03  0.89826203963E+02 0.  0.
          5    1    4    4  502    0 -0.44196878625E+02 -0.62037704213E+01  0.10346048648E+03  0.11277416863E+03  0.47000000000E+01 0. -1.
         -5    1    3    3    0  503  0.39447268015E+02  0.26784206700E+02 -0.11078920459E+03  0.12070550334E+03  0.47000000000E+01 0. -1.
          5    1    3    3  503    0  0.24061908500E+02 -0.38779895489E+02  0.16420942391E+02  0.48729796673E+02  0.47000000000E+01 0. -1.
         -5    1    4    4    0  502 -0.19312297890E+02  0.18199459210E+02 -0.13219920999E+02  0.30017352924E+02  0.47000000000E+01 0.  1.
<mgrwt>
<rscale>  0 0.13251751E+03</rscale>
<asrwt>0</asrwt>
<pdfrwt beam="1">  1        1 0.23699933E-01 0.14072296E+03</pdfrwt>
<pdfrwt beam="2">  1       -1 0.24334963E-01 0.14072296E+03</pdfrwt>
<totfact> 0.28922467E+03</totfact>
</mgrwt>
</event>
<event>
 8    1  0.3551276E-004  0.1827928E+03  0.7546771E-02  0.1170207E+00
         -1   -1    0    0    0  501 -0.00000000000E+00  0.00000000000E+00  0.26296734132E+03  0.26296734132E+03  0.00000000000E+00 0.  1.
          1   -1    0    0  501    0  0.00000000000E+00 -0.00000000000E+00 -0.28539872819E+03  0.28539872819E+03  0.00000000000E+00 0. -1.
         25    2    1    2    0    0 -0.13218627592E+03 -0.17755036827E+02 -0.22414975255E+03  0.28923404197E+03  0.12499906637E+03 0.  0.
         23    2    1    2    0    0  0.13218627592E+03  0.17755036827E+02  0.20171836567E+03  0.25913202754E+03  0.93116356084E+02 0.  0.
          5    1    3    3  502    0 -0.73707985228E+02 -0.32059999983E+02 -0.30021402921E+02  0.85930700676E+02  0.47000000000E+01 0.  1.
         -5    1    4    4    0  503  0.23285127008E+02  0.23230894695E+02  0.11509171290E+03  0.11979175258E+03  0.47000000000E+01 0.  1.
          5    1    4    4  503    0  0.10890114891E+03 -0.54758578679E+01  0.86626652773E+02  0.13934027495E+03  0.47000000000E+01 0. -1.
         -5    1    3    3    0  502 -0.58478290691E+02  0.14304963157E+02 -0.19412834963E+03  0.20330334130E+03  0.47000000000E+01 0.  1.
<mgrwt>
<rscale>  0 0.17753798E+03</rscale>
<asrwt>0</asrwt>
<pdfrwt beam="1">  1        1 0.43907497E-01 0.18279283E+03</pdfrwt>
<pdfrwt beam="2">  1       -1 0.40456514E-01 0.18279283E+03</pdfrwt>
<totfact> 0.56775188E+02</totfact>
</mgrwt>
</event>
<event>
 8    1  0.3551276E-004  0.1406900E+03  0.7546771E-02  0.1222906E+00
         -2   -1    0    0    0  501 -0.00000000000E+00  0.00000000000E+00  0.35885365032E+03  0.35885365032E+03  0.00000000000E+00 0.  1.
          2   -1    0    0  501    0  0.00000000000E+00 -0.00000000000E+00 -0.84879258486E+02  0.84879258486E+02  0.00000000000E+00 0. -1.
         25    2    1    2    0    0 -0.49869978750E+02 -0.41007891558E+02  0.29701656482E+03  0.32865259565E+03  0.12500010761E+03 0.  0.
         23    2    1    2    0    0  0.49869978750E+02  0.41007891558E+02 -0.23042172985E+02  0.11508031315E+03  0.92433082760E+02 0.  0.
          5    1    4    4  502    0  0.72916769816E+02  0.29758288531E+02 -0.35103766567E+02  0.86352622912E+02  0.47000000000E+01 0. -1.
         -5    1    3    3    0  503 -0.84796061858E+02 -0.11862097089E+02  0.13193088912E+03  0.15734970911E+03  0.47000000000E+01 0. -1.
          5    1    3    3  503    0  0.34926083108E+02 -0.29145794469E+02  0.16508567570E+03  0.17130288654E+03  0.47000000000E+01 0. -1.
         -5    1    4    4    0  502 -0.23046791066E+02  0.11249603027E+02  0.12061593581E+02  0.28727690238E+02  0.47000000000E+01 0.  1.
<mgrwt>
<rscale>  0 0.13311486E+03</rscale>
<asrwt>0</asrwt>
<pdfrwt beam="1">  1        2 0.13058348E-01 0.14069005E+03</pdfrwt>
<pdfrwt beam="2">  1       -2 0.55208253E-01 0.14069005E+03</pdfrwt>
<totfact> 0.14112900E+03</totfact>
</mgrwt>
</event>
<event>
 8    1  0.3551276E-004  0.1651472E+03  0.7546771E-02  0.1190026E+00
         -2   -1    0    0    0  501 -0.00000000000E+00  0.00000000000E+00  0.30463213785E+02  0.30463213785E+02  0.00000000000E+00 0.  1.
          2   -1    0    0  501    0  0.00000000000E+00 -0.00000000000E+00 -0.85328924207E+03  0.85328924207E+03  0.00000000000E+00 0. -1.
         25    2    1    2    0    0 -0.40958172222E+02  0.99853515345E+02 -0.30317561419E+03  0.34523768540E+03  0.12500123994E+03 0.  0.
         23    2    1    2    0    0  0.40958172222E+02 -0.99853515345E+02 -0.51965041410E+03  0.53851477045E+03  0.91177347649E+02 0.  0.
          5    1    3    3  502    0  0.42972632856E+02  0.49869081670E+02 -0.10102510675E+03  0.12067201280E+03  0.47000000000E+01 0.  1.
         -5    1    3    3    0  502 -0.83930805078E+02  0.49984433675E+02 -0.20215050744E+03  0.22456567260E+03  0.47000000000E+01 0.  1.
          5    1    4    4  503    0 -0.20612400026E+02 -0.65209387035E+02 -0.30009000536E+03  0.30782013662E+03  0.47000000000E+01 0. -1.
         -5    1    4    4    0  503  0.61570572248E+02 -0.34644128310E+02 -0.21956040874E+03  0.23069463383E+03  0.47000000000E+01 0.  1.
<mgrwt>
<rscale>  0 0.15882830E+03</rscale>
<asrwt>0</asrwt>
<pdfrwt beam="1">  1        2 0.13127528E+00 0.16514723E+03</pdfrwt>
<pdfrwt beam="2">  1       -2 0.46866479E-02 0.16514723E+03</pdfrwt>
<totfact> 0.68853149E+03</totfact>
</mgrwt>
</event>
<event>
 8    1  0.3551276E-004  0.4550968E+03  0.7546771E-02  0.1026781E+00
          2   -1    0    0  501    0  0.00000000000E+00  0.00000000000E+00  0.14490136126E+04  0.14490136126E+04  0.00000000000E+00 0. -1.
         -2   -1    0    0    0  501 -0.00000000000E+00 -0.00000000000E+00 -0.16036470478E+03  0.16036470478E+03  0.00000000000E+00 0.  1.
         25    2    1    2    0    0 -0.13599434265E+03  0.41592509268E+03  0.36617452751E+03  0.58412061333E+03  0.12499984947E+03 0.  0.
         23    2    1    2    0    0  0.13599434265E+03 -0.41592509268E+03  0.92247438033E+03  0.10252577041E+04  0.93307199351E+02 0.  0.
          5    1    3    3  502    0 -0.11435382470E+03  0.17134110086E+03  0.20312458050E+03  0.28933761469E+03  0.47000000000E+01 0. -1.
         -5    1    3    3    0  502 -0.21640517949E+02  0.24458399182E+03  0.16304994701E+03  0.29478299864E+03  0.47000000000E+01 0. -1.
          5    1    4    4  503    0  0.78234842495E+02 -0.32200290382E+03  0.61551258786E+03  0.69905965158E+03  0.47000000000E+01 0. -1.
         -5    1    4    4    0  503  0.57759500156E+02 -0.93922188856E+02  0.30696179246E+03  0.32619805249E+03  0.47000000000E+01 0.  1.
<mgrwt>
<rscale>  0 0.45316810E+03</rscale>
<asrwt>0</asrwt>
<pdfrwt beam="1">  1        2 0.22292516E+00 0.45509681E+03</pdfrwt>
<pdfrwt beam="2">  1       -2 0.24671494E-01 0.45509681E+03</pdfrwt>
<totfact> 0.20757753E+02</totfact>
</mgrwt>
</event>
<event>
 8    1  0.3551276E-004  0.1268695E+03  0.7546771E-02  0.1247967E+00
         -2   -1    0    0    0  501 -0.00000000000E+00  0.00000000000E+00  0.61814517380E+02  0.61814517380E+02  0.00000000000E+00 0.  1.
          2   -1    0    0  501    0  0.00000000000E+00 -0.00000000000E+00 -0.19545576480E+03  0.19545576480E+03  0.00000000000E+00 0. -1.
         25    2    1    2    0    0  0.20946120097E+02 -0.56344291665E+01 -0.88863270835E+02  0.15489526522E+03  0.12500150217E+03 0.  0.
         23    2    1    2    0    0 -0.20946120097E+02  0.56344291665E+01 -0.44777976585E+02  0.10237501696E+03  0.89471169502E+02 0.  0.
          5    1    4    4  502    0 -0.35435819123E+02 -0.19221705748E+02 -0.57652794478E+02  0.70506070376E+02  0.47000000000E+01 0. -1.
         -5    1    3    3    0  503  0.71204918420E+02 -0.69338941709E+01 -0.31037309032E+02  0.78125692621E+02  0.47000000000E+01 0.  1.
          5    1    3    3  503    0 -0.50258798323E+02  0.12994650044E+01 -0.57825961803E+02  0.76769572596E+02  0.47000000000E+01 0.  1.
         -5    1    4    4    0  502  0.14489699026E+02  0.24856134915E+02  0.12874817893E+02  0.31868946587E+02  0.47000000000E+01 0.  1.
<mgrwt>
<rscale>  0 0.11709518E+03</rscale>
<asrwt>0</asrwt>
<pdfrwt beam="1">  1        2 0.30070118E-01 0.12686947E+03</pdfrwt>
<pdfrwt beam="2">  1       -2 0.95099256E-02 0.12686947E+03</pdfrwt>
<totfact> 0.11755123E+04</totfact>
</mgrwt>
</event>
<event>
 8    1  0.3551276E-004  0.1560642E+03  0.7546771E-02  0.1200825E+00
         -3   -1    0    0    0  501 -0.00000000000E+00  0.00000000000E+00  0.38180409443E+03  0.38180409443E+03  0.00000000000E+00 0.  1.
          3   -1    0    0  501    0  0.00000000000E+00 -0.00000000000E+00 -0.62855866788E+02  0.62855866788E+02  0.00000000000E+00 0. -1.
         25    2    1    2    0    0 -0.23324741876E+02 -0.90471802917E+02  0.25221770696E+03  0.29659702992E+03  0.12500734276E+03 0.  0.
         23    2    1    2    0    0  0.23324741876E+02  0.90471802917E+02  0.66730520685E+02  0.14806293130E+03  0.93490526413E+02 0.  0.
          5    1    3    3  502    0 -0.42848668350E+02 -0.10584988419E+03  0.24491636666E+03  0.27027083272E+03  0.47000000000E+01 0.  1.
         -5    1    4    4    0  503 -0.70624262568E+01  0.98522160152E+02  0.59697692374E+02  0.11550929997E+03  0.47000000000E+01 0.  1.
          5    1    4    4  503    0  0.30387168133E+02 -0.80503572350E+01  0.70328283112E+01  0.32553631331E+02  0.47000000000E+01 0. -1.
         -5    1    3    3    0  502  0.19523926474E+02  0.15378081271E+02  0.73013402993E+01  0.26326197194E+02  0.47000000000E+01 0.  1.
<mgrwt>
<rscale>  0 0.14971420E+03</rscale>
<asrwt>0</asrwt>
<pdfrwt beam="1">  1        3 0.96701336E-02 0.15606417E+03</pdfrwt>
<pdfrwt beam="2">  1       -3 0.58739090E-01 0.15606417E+03</pdfrwt>
<totfact> 0.53057914E+02</totfact>
</mgrwt>
</event>
<event>
 8    1  0.3551276E-004  0.1436087E+03  0.7546771E-02  0.1218673E+00
         -2   -1    0    0    0  501 -0.00000000000E+00  0.00000000000E+00  0.55409383223E+02  0.55409383223E+02  0.00000000000E+00 0.  1.
          2   -1    0    0  501    0  0.00000000000E+00 -0.00000000000E+00 -0.32576245895E+03  0.32576245895E+03  0.00000000000E+00 0. -1.
         25    2    1    2    0    0 -0.53900868673E+02 -0.45751700954E+02 -0.99372451878E+02  0.17463771424E+03  0.12499970103E+03 0.  0.
         23    2    1    2    0    0  0.53900868673E+02  0.45751700954E+02 -0.17098062385E+03  0.20653412794E+03  0.91779357632E+02 0.  0.
          5    1    3    3  502    0 -0.73680855339E+02  0.16588787609E+02 -0.37378811340E+02  0.84399774023E+02  0.47000000000E+01 0.  1.
         -5    1    4    4    0  503 -0.22864146083E+01  0.55508620324E+02 -0.61563174455E+02  0.83057504604E+02  0.47000000000E+01 0.  1.
          5    1    4    4  503    0  0.56187283281E+02 -0.97569193700E+01 -0.10941744939E+03  0.12347662333E+03  0.47000000000E+01 0. -1.
         -5    1    3    3    0  502  0.19779986666E+02 -0.62340488563E+02 -0.61993640537E+02  0.90237940213E+02  0.47000000000E+01 0.  1.
<mgrwt>
<rscale>  0 0.13610138E+03</rscale>
<asrwt>0</asrwt>
<pdfrwt beam="1">  1        2 0.50117302E-01 0.14360866E+03</pdfrwt>
<pdfrwt beam="2">  1       -2 0.85245203E-02 0.14360866E+03</pdfrwt>
<totfact> 0.81592105E+03</totfact>
</mgrwt>
</event>
<event>
 8    1  0.3551276E-004  0.1304560E+03  0.7546771E-02  0.1239966E+00
         -1   -1    0    0    0  501 -0.00000000000E+00  0.00000000000E+00  0.13579968322E+02  0.13579968322E+02  0.00000000000E+00 0.  1.
          1   -1    0    0  501    0  0.00000000000E+00 -0.00000000000E+00 -0.10379043577E+04  0.10379043577E+04  0.00000000000E+00 0. -1.
         25    2    1    2    0    0  0.36853131979E+02  0.60036966614E+01 -0.44706359798E+03  0.46570874982E+03  0.12499832524E+03 0.  0.
         23    2    1    2    0    0 -0.36853131979E+02 -0.60036966614E+01 -0.57726079143E+03  0.58577557623E+03  0.92243193111E+02 0.  0.
          5    1    4    4  502    0  0.22444604154E+02 -0.27451656474E+02 -0.18086088182E+03  0.18436404821E+03  0.47000000000E+01 0. -1.
         -5    1    4    4    0  502 -0.59297736133E+02  0.21447959813E+02 -0.39639990961E+03  0.40141152802E+03  0.47000000000E+01 0.  1.
          5    1    3    3  503    0 -0.35602424779E+02 -0.31657864115E+02 -0.19044670373E+03  0.19637156100E+03  0.47000000000E+01 0.  1.
         -5    1    3    3    0  503  0.72455556758E+02  0.37661560777E+02 -0.25661689425E+03  0.26933718882E+03  0.47000000000E+01 0.  1.
<mgrwt>
<rscale>  0 0.12191833E+03</rscale>
<asrwt>0</asrwt>
<pdfrwt beam="1">  1        1 0.15967765E+00 0.13045604E+03</pdfrwt>
<pdfrwt beam="2">  1       -1 0.20892252E-02 0.13045604E+03</pdfrwt>
<totfact> 0.92913532E+03</totfact>
</mgrwt>
</event>
<event>
 8    1  0.3551276E-004  0.1306030E+03  0.7546771E-02  0.1236765E+00
         -1   -1    0    0    0  501 -0.00000000000E+00  0.00000000000E+00  0.36974951668E+02  0.36974951668E+02  0.00000000000E+00 0.  1.
          1   -1    0    0  501    0  0.00000000000E+00 -0.00000000000E+00 -0.39857093681E+03  0.39857093681E+03  0.00000000000E+00 0. -1.
         25    2    1    2    0    0 -0.71360686138E+01 -0.37158315698E+02 -0.24789960721E+03  0.28019880011E+03  0.12500195370E+03 0.  0.
         23    2    1    2    0    0  0.71360686138E+01  0.37158315698E+02 -0.11369637794E+03  0.15534708837E+03  0.98864491140E+02 0.  0.
          5    1    4    4  502    0  0.21681533501E+02  0.15373171382E+02 -0.12392934228E+03  0.12683451885E+03  0.47000000000E+01 0. -1.
         -5    1    4    4    0  502 -0.14545464887E+02  0.21785144316E+02  0.10232964342E+02  0.28512569524E+02  0.47000000000E+01 0.  1.
          5    1    3    3  503    0  0.25189983361E+01 -0.68354017587E+02 -0.23496171868E+03  0.24476052852E+03  0.47000000000E+01 0.  1.
         -5    1    3    3    0  503 -0.96550669499E+01  0.31195701889E+02 -0.12937888525E+02  0.35438271594E+02  0.47000000000E+01 0.  1.
<mgrwt>
<rscale>  0 0.12392118E+03</rscale>
<asrwt>0</asrwt>
<pdfrwt beam="1">  1        1 0.61318602E-01 0.13060303E+03</pdfrwt>
<pdfrwt beam="2">  1       -1 0.56884544E-02 0.13060303E+03</pdfrwt>
<totfact> 0.83733041E+03</totfact>
</mgrwt>
</event>
<event>
 8    1  0.3551276E-004  0.1282217E+03  0.7546771E-02  0.1243608E+00
         -1   -1    0    0    0  501 -0.00000000000E+00  0.00000000000E+00  0.17619697177E+02  0.17619697177E+02  0.00000000000E+00 0.  1.
          1   -1    0    0  501    0  0.00000000000E+00 -0.00000000000E+00 -0.75165432411E+03  0.75165432411E+03  0.00000000000E+00 0. -1.
         25    2    1    2    0    0 -0.65840054284E+01 -0.27822988273E+02 -0.33953705295E+03  0.36294106683E+03  0.12499335928E+03 0.  0.
         23    2    1    2    0    0  0.65840054284E+01  0.27822988273E+02 -0.39449757398E+03  0.40633295445E+03  0.93062700328E+02 0.  0.
          5    1    4    4  502    0  0.43422223338E+02  0.36925570810E+02 -0.19545249507E+03  0.20364860689E+03  0.47000000000E+01 0. -1.
         -5    1    4    4    0  502 -0.36838217909E+02 -0.91025825370E+01 -0.19904507892E+03  0.20268434757E+03  0.47000000000E+01 0.  1.
          5    1    3    3  503    0  0.27225766151E+02  0.28909468466E+02 -0.41472198001E+02  0.57611048563E+02  0.47000000000E+01 0.  1.
         -5    1    3    3    0  503 -0.33809771579E+02 -0.56732456738E+02 -0.29806485495E+03  0.30533001827E+03  0.47000000000E+01 0.  1.
<mgrwt>
<rscale>  0 0.11969101E+03</rscale>
<asrwt>0</asrwt>
<pdfrwt beam="1">  1        1 0.11563913E+00 0.12822171E+03</pdfrwt>
<pdfrwt beam="2">  1       -1 0.27107225E-02 0.12822171E+03</pdfrwt>
<totfact> 0.10605363E+04</totfact>
</mgrwt>
</event>
<event>
 8    1  0.3551276E-004  0.1649504E+03  0.7546771E-02  0.1190860E+00
          2   -1    0    0  501    0  0.00000000000E+00  0.00000000000E+00  0.16925464293E+03  0.16925464293E+03  0.00000000000E+00 0. -1.
         -2   -1    0    0    0  501 -0.00000000000E+00 -0.00000000000E+00 -0.15245129211E+03  0.15245129211E+03  0.00000000000E+00 0.  1.
         25    2    1    2    0    0 -0.77880162466E+01  0.10734788930E+03 -0.42588696714E+02  0.17035970622E+03  0.12499763950E+03 0.  0.
         23    2    1    2    0    0  0.77880162466E+01 -0.10734788930E+03  0.59392047526E+02  0.15134622882E+03  0.88283878116E+02 0.  0.
          5    1    4    4  502    0  0.27009700088E+02 -0.30560740189E+01 -0.37421301004E+01  0.27838049948E+02  0.47000000000E+01 0. -1.
         -5    1    4    4    0  502 -0.19221683841E+02 -0.10429181528E+03  0.63134177627E+02  0.12350817887E+03  0.47000000000E+01 0.  1.
          5    1    3    3  503    0 -0.33381167449E+01  0.58209145522E+02 -0.86313047612E+02  0.10426638880E+03  0.47000000000E+01 0. -1.
         -5    1    3    3    0  503 -0.44498995017E+01  0.49138743776E+02  0.43724350898E+02  0.66093317415E+02  0.47000000000E+01 0. -1.
<mgrwt>
<rscale>  0 0.15809909E+03</rscale>
<asrwt>0</asrwt>
<pdfrwt beam="1">  1        2 0.26039176E-01 0.16495039E+03</pdfrwt>
<pdfrwt beam="2">  1       -2 0.23454045E-01 0.16495039E+03</pdfrwt>
<totfact> 0.31837812E+03</totfact>
</mgrwt>
</event>
<event>
 8    1  0.3551276E-004  0.1639660E+03  0.7546771E-02  0.1191785E+00
         -2   -1    0    0    0  501 -0.00000000000E+00  0.00000000000E+00  0.23982189886E+02  0.23982189886E+02  0.00000000000E+00 0. -1.
          2   -1    0    0  501    0  0.00000000000E+00 -0.00000000000E+00 -0.10589250726E+04  0.10589250726E+04  0.00000000000E+00 0.  1.
         25    2    1    2    0    0 -0.10714904540E+02 -0.10555418093E+03 -0.38790894383E+03  0.42113916111E+03  0.12501339940E+03 0.  0.
         23    2    1    2    0    0  0.10714904540E+02  0.10555418093E+03 -0.64703393891E+03  0.66176810140E+03  0.89596917574E+02 0.  0.
          5    1    3    3  502    0 -0.62368464521E+01 -0.70625551779E+02 -0.65061582142E+02  0.96342961801E+02  0.47000000000E+01 0. -1.
         -5    1    4    4    0  503 -0.10967838854E+02  0.11409198804E+03 -0.55330251183E+03  0.56506905315E+03  0.47000000000E+01 0.  1.
          5    1    4    4  503    0  0.21682743394E+02 -0.85378071082E+01 -0.93731427073E+02  0.96699048249E+02  0.47000000000E+01 0. -1.
         -5    1    3    3    0  502 -0.44780580876E+01 -0.34928629148E+02 -0.32284736169E+03  0.32479619931E+03  0.47000000000E+01 0. -1.
<mgrwt>
<rscale>  0 0.15729512E+03</rscale>
<asrwt>0</asrwt>
<pdfrwt beam="1">  1        2 0.16291153E+00 0.16396599E+03</pdfrwt>
<pdfrwt beam="2">  1       -2 0.36895681E-02 0.16396599E+03</pdfrwt>
<totfact> 0.73484701E+03</totfact>
</mgrwt>
</event>
<event>
 8    1  0.3551276E-004  0.2725983E+03  0.7546771E-02  0.1101752E+00
          1   -1    0    0  501    0  0.00000000000E+00  0.00000000000E+00  0.74976927119E+03  0.74976927119E+03  0.00000000000E+00 0. -1.
         -1   -1    0    0    0  501 -0.00000000000E+00 -0.00000000000E+00 -0.94972517280E+02  0.94972517280E+02  0.00000000000E+00 0.  1.
         25    2    1    2    0    0 -0.15800756902E+03  0.18362213419E+03  0.29973071716E+03  0.40515224861E+03  0.12500544672E+03 0.  0.
         23    2    1    2    0    0  0.15800756902E+03 -0.18362213419E+03  0.35506603675E+03  0.43958953986E+03  0.92106422537E+02 0.  0.
          5    1    3    3  502    0 -0.36151801820E+02  0.59627790380E+02  0.18248180560E+03  0.19540758823E+03  0.47000000000E+01 0. -1.
         -5    1    3    3    0  502 -0.12185576720E+03  0.12399434381E+03  0.11724891156E+03  0.20974466038E+03  0.47000000000E+01 0. -1.
          5    1    4    4  503    0  0.11967121114E+03 -0.15203545870E+03  0.33272637770E+03  0.38492195559E+03  0.47000000000E+01 0. -1.
         -5    1    4    4    0  503  0.38336357876E+02 -0.31586675491E+02  0.22339659049E+02  0.54667584272E+02  0.47000000000E+01 0.  1.
<mgrwt>
<rscale>  0 0.26917637E+03</rscale>
<asrwt>0</asrwt>
<pdfrwt beam="1">  1        1 0.11534911E+00 0.27259832E+03</pdfrwt>
<pdfrwt beam="2">  1       -1 0.14611157E-01 0.27259832E+03</pdfrwt>
<totfact> 0.85505163E+02</totfact>
</mgrwt>
</event>
<event>
 8    1  0.3551276E-004  0.1256583E+03  0.7546771E-02  0.1249447E+00
          1   -1    0    0  501    0  0.00000000000E+00  0.00000000000E+00  0.19241268332E+03  0.19241268332E+03  0.00000000000E+00 0. -1.
         -1   -1    0    0    0  501 -0.00000000000E+00 -0.00000000000E+00 -0.61946051903E+02  0.61946051903E+02  0.00000000000E+00 0.  1.
         25    2    1    2    0    0  0.46883125453E+01  0.11854836793E+02  0.65164235990E+02  0.14154997945E+03  0.12501000600E+03 0.  0.
         23    2    1    2    0    0 -0.46883125453E+01 -0.11854836793E+02  0.65302395425E+02  0.11280875577E+03  0.91098271663E+02 0.  0.
          5    1    3    3  502    0 -0.38683561326E+02 -0.19639666173E+02 -0.14002622548E+02  0.45829006562E+02  0.47000000000E+01 0.  1.
         -5    1    3    3    0  502  0.43371873871E+02  0.31494502966E+02  0.79166858538E+02  0.95720972890E+02  0.47000000000E+01 0.  1.
          5    1    4    4  503    0 -0.27540332205E+02  0.17369227557E+02  0.67770157192E+02  0.75332889030E+02  0.47000000000E+01 0. -1.
         -5    1    4    4    0  503  0.22852019660E+02 -0.29224064350E+02 -0.24677617672E+01  0.37475866738E+02  0.47000000000E+01 0.  1.
<mgrwt>
<rscale>  0 0.11623150E+03</rscale>
<asrwt>0</asrwt>
<pdfrwt beam="1">  1        1 0.29601951E-01 0.12565834E+03</pdfrwt>
<pdfrwt beam="2">  1       -1 0.95301619E-02 0.12565834E+03</pdfrwt>
<totfact> 0.94896030E+03</totfact>
</mgrwt>
</event>
<event>
 8    1  0.3551276E-004  0.1297567E+03  0.7546771E-02  0.1241905E+00
          2   -1    0    0  501    0  0.00000000000E+00  0.00000000000E+00  0.32156200929E+02  0.32156200929E+02  0.00000000000E+00 0. -1.
         -2   -1    0    0    0  501 -0.00000000000E+00 -0.00000000000E+00 -0.50987592813E+03  0.50987592813E+03  0.00000000000E+00 0.  1.
         25    2    1    2    0    0 -0.34596707102E+02 -0.40517968901E+01 -0.39021695193E+03  0.41122509854E+03  0.12499385143E+03 0.  0.
         23    2    1    2    0    0  0.34596707102E+02  0.40517968901E+01 -0.87502775277E+02  0.13080703053E+03  0.90776617880E+02 0.  0.
          5    1    3    3  502    0 -0.67246575491E+02 -0.28732050341E+02 -0.33146582005E+03  0.33946916280E+03  0.47000000000E+01 0.  1.
         -5    1    4    4    0  503  0.53186983213E+01 -0.31605572291E+02 -0.76598551135E+02  0.83166271936E+02  0.47000000000E+01 0.  1.
          5    1    4    4  503    0  0.29278008781E+02  0.35657369181E+02 -0.10904224142E+02  0.47640758592E+02  0.47000000000E+01 0. -1.
         -5    1    3    3    0  502  0.32649868389E+02  0.24680253451E+02 -0.58751131879E+02  0.71755935736E+02  0.47000000000E+01 0.  1.
<mgrwt>
<rscale>  0 0.12072520E+03</rscale>
<asrwt>0</asrwt>
<pdfrwt beam="1">  1        2 0.49471085E-02 0.12975674E+03</pdfrwt>
<pdfrwt beam="2">  1       -2 0.78442440E-01 0.12975674E+03</pdfrwt>
<totfact> 0.22693644E+03</totfact>
</mgrwt>
</event>
<event>
 8    1  0.3551276E-004  0.1755336E+03  0.7546771E-02  0.1177959E+00
         -1   -1    0    0    0  501 -0.00000000000E+00  0.00000000000E+00  0.33118362212E+02  0.33118362212E+02  0.00000000000E+00 0.  1.
          1   -1    0    0  501    0  0.00000000000E+00 -0.00000000000E+00 -0.81992873393E+03  0.81992873393E+03  0.00000000000E+00 0. -1.
         25    2    1    2    0    0  0.94761458155E+02  0.78783888793E+02 -0.42128146044E+03  0.45638813160E+03  0.12500169067E+03 0.  0.
         23    2    1    2    0    0 -0.94761458155E+02 -0.78783888793E+02 -0.36552891128E+03  0.39665896454E+03  0.92413819776E+02 0.  0.
          5    1    4    4  502    0 -0.53580153832E+02  0.37187889433E+01 -0.79177597889E+02  0.95790627325E+02  0.47000000000E+01 0. -1.
         -5    1    3    3    0  503 -0.11609443894E+02  0.22128535159E+02 -0.22199562732E+03  0.22344708502E+03  0.47000000000E+01 0. -1.
          5    1    3    3  503    0  0.10637090205E+03  0.56655353634E+02 -0.19928583312E+03  0.23294104657E+03  0.47000000000E+01 0. -1.
         -5    1    4    4    0  502 -0.41181304323E+02 -0.82502677736E+02 -0.28635131339E+03  0.30086833722E+03  0.47000000000E+01 0.  1.
<mgrwt>
<rscale>  0 0.16989301E+03</rscale>
<asrwt>0</asrwt>
<pdfrwt beam="1">  1        1 0.12614288E+00 0.17553364E+03</pdfrwt>
<pdfrwt beam="2">  1       -1 0.50951327E-02 0.17553364E+03</pdfrwt>
<totfact> 0.37397815E+03</totfact>
</mgrwt>
</event>
<event>
 8    1  0.3551276E-004  0.1284641E+03  0.7546771E-02  0.1243955E+00
          3   -1    0    0  501    0  0.00000000000E+00  0.00000000000E+00  0.75940322154E+02  0.75940322154E+02  0.00000000000E+00 0. -1.
         -3   -1    0    0    0  501 -0.00000000000E+00 -0.00000000000E+00 -0.17446924802E+03  0.17446924802E+03  0.00000000000E+00 0.  1.
         25    2    1    2    0    0 -0.26929292200E+02 -0.12305056138E+02 -0.28796704474E+02  0.13165214637E+03  0.12500574495E+03 0.  0.
         23    2    1    2    0    0  0.26929292200E+02  0.12305056138E+02 -0.69732221390E+02  0.11875742380E+03  0.91455682293E+02 0.  0.
          5    1    4    4  502    0  0.44496396540E+02 -0.40908747602E+01 -0.83993793097E-01  0.44930631159E+02  0.47000000000E+01 0. -1.
         -5    1    3    3    0  503 -0.30478028931E+02 -0.33297664277E+02  0.39371522025E+02  0.60082039250E+02  0.47000000000E+01 0. -1.
          5    1    3    3  503    0  0.35487367309E+01  0.20992608139E+02 -0.68168226500E+02  0.71570107119E+02  0.47000000000E+01 0. -1.
         -5    1    4    4    0  502 -0.17567104340E+02  0.16395930899E+02 -0.69648227597E+02  0.73826792645E+02  0.47000000000E+01 0.  1.
<mgrwt>
<rscale>  0 0.11948127E+03</rscale>
<asrwt>0</asrwt>
<pdfrwt beam="1">  1        3 0.11683127E-01 0.12846415E+03</pdfrwt>
<pdfrwt beam="2">  1       -3 0.26841423E-01 0.12846415E+03</pdfrwt>
<totfact> 0.17049856E+03</totfact>
</mgrwt>
</event>
<event>
 8    1  0.3551276E-004  0.1315942E+03  0.7546771E-02  0.1240662E+00
          2   -1    0    0  501    0  0.00000000000E+00  0.00000000000E+00  0.16819883298E+03  0.16819883298E+03  0.00000000000E+00 0. -1.
         -2   -1    0    0    0  501 -0.00000000000E+00 -0.00000000000E+00 -0.77471985822E+02  0.77471985822E+02  0.00000000000E+00 0.  1.
         25    2    1    2    0    0  0.40604734324E+02 -0.65432237677E+01  0.64465125020E+02  0.14653592388E+03  0.12500186566E+03 0.  0.
         23    2    1    2    0    0 -0.40604734324E+02  0.65432237677E+01  0.26261722135E+02  0.99134894915E+02  0.86293053681E+02 0.  0.
          5    1    4    4  502    0 -0.62707018650E+02  0.32168067966E+01  0.37909290854E+02  0.73496410572E+02  0.47000000000E+01 0. -1.
         -5    1    3    3    0  503  0.92005543229E+01 -0.51180011840E+02 -0.10927490757E+02  0.53343639415E+02  0.47000000000E+01 0.  1.
          5    1    3    3  503    0  0.31404180001E+02  0.44636788072E+02  0.75392615777E+02  0.93192284469E+02  0.47000000000E+01 0.  1.
         -5    1    4    4    0  502  0.22102284327E+02  0.33264169710E+01 -0.11647568720E+02  0.25638484343E+02  0.47000000000E+01 0.  1.
<mgrwt>
<rscale>  0 0.12148822E+03</rscale>
<asrwt>0</asrwt>
<pdfrwt beam="1">  1        2 0.25876744E-01 0.13159417E+03</pdfrwt>
<pdfrwt beam="2">  1       -2 0.11918767E-01 0.13159417E+03</pdfrwt>
<totfact> 0.97241480E+03</totfact>
</mgrwt>
</event>
<event>
 8    1  0.3551276E-004  0.1327889E+03  0.7546771E-02  0.1236098E+00
         -4   -1    0    0    0  501 -0.00000000000E+00  0.00000000000E+00  0.40521297478E+03  0.40521297478E+03  0.00000000000E+00 0. -1.
          4   -1    0    0  501    0  0.00000000000E+00 -0.00000000000E+00 -0.42374232815E+02  0.42374232815E+02  0.00000000000E+00 0.  1.
         25    2    1    2    0    0  0.33848979014E+02 -0.29337267228E+02  0.10188572873E+03  0.16737263419E+03  0.12500587317E+03 0.  0.
         23    2    1    2    0    0 -0.33848979014E+02  0.29337267228E+02  0.26095301323E+03  0.28021457341E+03  0.91745863149E+02 0.  0.
          5    1    4    4  502    0 -0.61206017690E+02  0.29682957114E+02  0.22300764517E+03  0.23319895873E+03  0.47000000000E+01 0. -1.
         -5    1    4    4    0  502  0.27357038677E+02 -0.34568988605E+00  0.37945368061E+02  0.47015614682E+02  0.47000000000E+01 0.  1.
          5    1    3    3  503    0  0.64389239025E+02 -0.27102913241E+02  0.10404098852E+02  0.70787550327E+02  0.47000000000E+01 0.  1.
         -5    1    3    3    0  503 -0.30540260012E+02 -0.22343539862E+01  0.91481629882E+02  0.96585083864E+02  0.47000000000E+01 0.  1.
<mgrwt>
<rscale>  0 0.12434384E+03</rscale>
<asrwt>0</asrwt>
<pdfrwt beam="1">  1        4 0.65191130E-02 0.13278892E+03</pdfrwt>
<pdfrwt beam="2">  1       -4 0.62340455E-01 0.13278892E+03</pdfrwt>
<totfact> 0.62573289E+02</totfact>
</mgrwt>
</event>
<event>
 8    1  0.3551276E-004  0.1445649E+03  0.7546771E-02  0.1217573E+00
          1   -1    0    0  501    0  0.00000000000E+00  0.00000000000E+00  0.12798176883E+03  0.12798176883E+03  0.00000000000E+00 0. -1.
         -1   -1    0    0    0  501 -0.00000000000E+00 -0.00000000000E+00 -0.13314901894E+03  0.13314901894E+03  0.00000000000E+00 0.  1.
         25    2    1    2    0    0 -0.57834471506E+02  0.43914644278E+02 -0.88950784788E+01  0.14483834305E+03  0.12500280444E+03 0.  0.
         23    2    1    2    0    0  0.57834471506E+02 -0.43914644278E+02  0.37278283678E+01  0.11629244472E+03  0.90756343684E+02 0.  0.
          5    1    3    3  502    0 -0.60209479651E+02  0.83835318122E+02 -0.13932095406E+02  0.10425802265E+03  0.47000000000E+01 0.  1.
         -5    1    4    4    0  503  0.34831201107E+02 -0.53961208379E+02 -0.32368910698E+02  0.72075383870E+02  0.47000000000E+01 0.  1.
          5    1    4    4  503    0  0.23003270399E+02  0.10046564101E+02  0.36096739065E+02  0.44217060853E+02  0.47000000000E+01 0. -1.
         -5    1    3    3    0  502  0.23750081446E+01 -0.39920673844E+02  0.50370169273E+01  0.40580320395E+02  0.47000000000E+01 0.  1.
<mgrwt>
<rscale>  0 0.13689239E+03</rscale>
<asrwt>0</asrwt>
<pdfrwt beam="1">  1        1 0.19689503E-01 0.14456494E+03</pdfrwt>
<pdfrwt beam="2">  1       -1 0.20484464E-01 0.14456494E+03</pdfrwt>
<totfact> 0.48467621E+03</totfact>
</mgrwt>
</event>
<event>
 8    1  0.3551276E-004  0.1642322E+03  0.7546771E-02  0.1191024E+00
          2   -1    0    0  501    0  0.00000000000E+00  0.00000000000E+00  0.13159613911E+04  0.13159613911E+04  0.00000000000E+00 0.  1.
         -2   -1    0    0    0  501 -0.00000000000E+00 -0.00000000000E+00 -0.21858870748E+02  0.21858870748E+02  0.00000000000E+00 0. -1.
         25    2    1    2    0    0 -0.84096266293E+02 -0.65382163972E+02  0.98065517465E+03  0.99431221360E+03  0.12500078864E+03 0.  0.
         23    2    1    2    0    0  0.84096266293E+02  0.65382163972E+02  0.31344734570E+03  0.34350804826E+03  0.91659867548E+02 0.  0.
          5    1    4    4  502    0  0.62604516770E+02  0.35724585073E+02  0.82612239201E+02  0.10973806798E+03  0.47000000000E+01 0. -1.
         -5    1    3    3    0  503  0.43649643468E+01 -0.42934524179E+02  0.10114941228E+03  0.11007143083E+03  0.47000000000E+01 0.  1.
          5    1    3    3  503    0 -0.88461230639E+02 -0.22447639793E+02  0.87950576237E+03  0.88424078277E+03  0.47000000000E+01 0.  1.
         -5    1    4    4    0  502  0.21491749522E+02  0.29657578898E+02  0.23083510650E+03  0.23376998028E+03  0.47000000000E+01 0.  1.
<mgrwt>
<rscale>  0 0.15795579E+03</rscale>
<asrwt>0</asrwt>
<pdfrwt beam="1">  1        2 0.20245554E+00 0.16423217E+03</pdfrwt>
<pdfrwt beam="2">  1       -2 0.33629042E-02 0.16423217E+03</pdfrwt>
<totfact> 0.60490084E+03</totfact>
</mgrwt>
</event>
<event>
 8    1  0.3551276E-004  0.1797729E+03  0.7546771E-02  0.1173833E+00
          4   -1    0    0  501    0  0.00000000000E+00  0.00000000000E+00  0.31660208246E+02  0.31660208246E+02  0.00000000000E+00 0.  1.
         -4   -1    0    0    0  501 -0.00000000000E+00 -0.00000000000E+00 -0.93386901385E+03  0.93386901385E+03  0.00000000000E+00 0. -1.
         25    2    1    2    0    0 -0.12824465933E+03  0.15639169107E+02 -0.38527083819E+03  0.42514930416E+03  0.12500814299E+03 0.  0.
         23    2    1    2    0    0  0.12824465933E+03 -0.15639169107E+02 -0.51693796741E+03  0.54037991793E+03  0.89968423870E+02 0.  0.
          5    1    4    4  502    0  0.82090347198E+02 -0.19038033302E+02 -0.45584815040E+03  0.46359561909E+03  0.47000000000E+01 0. -1.
         -5    1    3    3    0  503  0.16575608002E+01  0.46012246640E+02 -0.10026528746E+03  0.11043139145E+03  0.47000000000E+01 0. -1.
          5    1    3    3  503    0 -0.12990222013E+03 -0.30373077533E+02 -0.28500555073E+03  0.31471791271E+03  0.47000000000E+01 0. -1.
         -5    1    4    4    0  502  0.46154312132E+02  0.33988641949E+01 -0.61089817015E+02  0.76784298845E+02  0.47000000000E+01 0.  1.
<mgrwt>
<rscale>  0 0.17390744E+03</rscale>
<asrwt>0</asrwt>
<pdfrwt beam="1">  1        4 0.48708014E-02 0.17977295E+03</pdfrwt>
<pdfrwt beam="2">  1       -4 0.14367215E+00 0.17977295E+03</pdfrwt>
<totfact> 0.15492264E+02</totfact>
</mgrwt>
</event>
<event>
 8    1  0.3551276E-004  0.1685976E+03  0.7546771E-02  0.1185277E+00
         -2   -1    0    0    0  501 -0.00000000000E+00  0.00000000000E+00  0.10042130050E+03  0.10042130050E+03  0.00000000000E+00 0.  1.
          2   -1    0    0  501    0  0.00000000000E+00 -0.00000000000E+00 -0.33121807314E+03  0.33121807314E+03  0.00000000000E+00 0. -1.
         25    2    1    2    0    0 -0.11244151693E+03 -0.12550449437E+02 -0.13701640763E+02  0.16915341656E+03  0.12499813943E+03 0.  0.
         23    2    1    2    0    0  0.11244151693E+03  0.12550449437E+02 -0.21709513187E+03  0.26248595709E+03  0.94699381592E+02 0.  0.
          5    1    3    3  502    0 -0.92705932419E+02  0.46640153811E+02  0.45247701282E+01  0.10398200516E+03  0.47000000000E+01 0.  1.
         -5    1    3    3    0  502 -0.19735584514E+02 -0.59190603248E+02 -0.18226410891E+02  0.65171411393E+02  0.47000000000E+01 0.  1.
          5    1    4    4  503    0  0.72151078022E+02 -0.38584684973E+02 -0.12933119379E+03  0.15311173587E+03  0.47000000000E+01 0. -1.
         -5    1    4    4    0  503  0.40290438911E+02  0.51135134411E+02 -0.87763938080E+02  0.10937422121E+03  0.47000000000E+01 0.  1.
<mgrwt>
<rscale>  0 0.16306744E+03</rscale>
<asrwt>0</asrwt>
<pdfrwt beam="1">  1        2 0.50956627E-01 0.16859758E+03</pdfrwt>
<pdfrwt beam="2">  1       -2 0.15449431E-01 0.16859758E+03</pdfrwt>
<totfact> 0.31281600E+03</totfact>
</mgrwt>
</event>
<event>
 8    1  0.3551276E-004  0.1333775E+03  0.7546771E-02  0.1234759E+00
          1   -1    0    0  501    0  0.00000000000E+00  0.00000000000E+00  0.52748219452E+03  0.52748219452E+03  0.00000000000E+00 0. -1.
         -1   -1    0    0    0  501 -0.00000000000E+00 -0.00000000000E+00 -0.32960643029E+02  0.32960643029E+02  0.00000000000E+00 0.  1.
         25    2    1    2    0    0 -0.15306270002E+02  0.43890343902E+02  0.39464634577E+03  0.41657566281E+03  0.12501560075E+03 0.  0.
         23    2    1    2    0    0  0.15306270002E+02 -0.43890343902E+02  0.99875205722E+02  0.14386717473E+03  0.92531416606E+02 0.  0.
          5    1    4    4  502    0  0.45268473292E+02 -0.34266456164E+02  0.96244912384E+02  0.11184184303E+03  0.47000000000E+01 0. -1.
         -5    1    4    4    0  502 -0.29962203290E+02 -0.96238877375E+01  0.36302933374E+01  0.32025331706E+02  0.47000000000E+01 0.  1.
          5    1    3    3  503    0  0.17101318171E+02  0.68391005046E+02  0.34544378975E+03  0.35259507446E+03  0.47000000000E+01 0.  1.
         -5    1    3    3    0  503 -0.32407588172E+02 -0.24500661144E+02  0.49202556016E+02  0.63980588354E+02  0.47000000000E+01 0.  1.
<mgrwt>
<rscale>  0 0.12519871E+03</rscale>
<asrwt>0</asrwt>
<pdfrwt beam="1">  1        1 0.81151101E-01 0.13337745E+03</pdfrwt>
<pdfrwt beam="2">  1       -1 0.50708685E-02 0.13337745E+03</pdfrwt>
<totfact> 0.69362660E+03</totfact>
</mgrwt>
</event>
<event>
 8    1  0.3551276E-004  0.1357433E+03  0.7546771E-02  0.1232697E+00
          2   -1    0    0  501    0  0.00000000000E+00  0.00000000000E+00  0.79512869346E+02  0.79512869346E+02  0.00000000000E+00 0. -1.
         -2   -1    0    0    0  501 -0.00000000000E+00 -0.00000000000E+00 -0.22193783909E+03  0.22193783909E+03  0.00000000000E+00 0.  1.
         25    2    1    2    0    0  0.71135946824E+01 -0.52448557605E+02 -0.12994549534E+02  0.13636385218E+03  0.12499914976E+03 0.  0.
         23    2    1    2    0    0 -0.71135946824E+01  0.52448557605E+02 -0.12943042021E+03  0.16508685625E+03  0.87749541349E+02 0.  0.
          5    1    4    4  502    0 -0.45074831069E+02  0.43683404278E+02 -0.85668692743E+02  0.10630707936E+03  0.47000000000E+01 0. -1.
         -5    1    3    3    0  503 -0.43676139270E+02 -0.69629033496E+01 -0.42872985016E+02  0.61775966272E+02  0.47000000000E+01 0.  1.
          5    1    3    3  503    0  0.50789733953E+02 -0.45485654255E+02  0.29878435482E+02  0.74587885912E+02  0.47000000000E+01 0.  1.
         -5    1    4    4    0  502  0.37961236386E+02  0.87651533267E+01 -0.43761727469E+02  0.58779776895E+02  0.47000000000E+01 0.  1.
<mgrwt>
<rscale>  0 0.12653040E+03</rscale>
<asrwt>0</asrwt>
<pdfrwt beam="1">  1        2 0.12232749E-01 0.13574329E+03</pdfrwt>
<pdfrwt beam="2">  1       -2 0.34144283E-01 0.13574329E+03</pdfrwt>
<totfact> 0.38413100E+03</totfact>
</mgrwt>
</event>
<event>
 8    1  0.3551276E-004  0.1710160E+03  0.7546771E-02  0.1183210E+00
          2   -1    0    0  501    0  0.00000000000E+00  0.00000000000E+00  0.47306361309E+03  0.47306361309E+03  0.00000000000E+00 0. -1.
         -2   -1    0    0    0  501 -0.00000000000E+00 -0.00000000000E+00 -0.61962468064E+02  0.61962468064E+02  0.00000000000E+00 0.  1.
         25    2    1    2    0    0  0.38697622579E+01  0.11664329856E+03  0.31529183705E+03  0.35868567938E+03  0.12500335965E+03 0.  0.
         23    2    1    2    0    0 -0.38697622579E+01 -0.11664329856E+03  0.95809307977E+02  0.17634040177E+03  0.91081719584E+02 0.  0.
          5    1    3    3  502    0 -0.58424231963E+02  0.57170697577E+02  0.12088831213E+03  0.14600669009E+03  0.47000000000E+01 0.  1.
         -5    1    4    4    0  503  0.32392896710E+02 -0.22326488753E+02  0.41585000183E+01  0.39839113692E+02  0.47000000000E+01 0.  1.
          5    1    4    4  503    0 -0.36262658968E+02 -0.94316809811E+02  0.91650807958E+02  0.13650128808E+03  0.47000000000E+01 0. -1.
         -5    1    3    3    0  502  0.62293994221E+02  0.59472600988E+02  0.19440352492E+03  0.21267898929E+03  0.47000000000E+01 0.  1.
<mgrwt>
<rscale>  0 0.16495824E+03</rscale>
<asrwt>0</asrwt>
<pdfrwt beam="1">  1        2 0.72779015E-01 0.17101601E+03</pdfrwt>
<pdfrwt beam="2">  1       -2 0.95326877E-02 0.17101601E+03</pdfrwt>
<totfact> 0.46320410E+03</totfact>
</mgrwt>
</event>
<event>
 8    1  0.3551276E-004  0.2655530E+03  0.7546771E-02  0.1105929E+00
         -2   -1    0    0    0  501 -0.00000000000E+00  0.00000000000E+00  0.19311838413E+03  0.19311838413E+03  0.00000000000E+00 0.  1.
          2   -1    0    0  501    0  0.00000000000E+00 -0.00000000000E+00 -0.34656525938E+03  0.34656525938E+03  0.00000000000E+00 0. -1.
         25    2    1    2    0    0  0.84113098627E+02 -0.21867563926E+03 -0.73097637496E+02  0.27543000246E+03  0.12499749232E+03 0.  0.
         23    2    1    2    0    0 -0.84113098627E+02  0.21867563926E+03 -0.80349237752E+02  0.26425364105E+03  0.92086580122E+02 0.  0.
          5    1    4    4  502    0  0.16002910958E+02  0.43856046760E+02  0.10241535561E+01  0.46931704497E+02  0.47000000000E+01 0. -1.
         -5    1    3    3    0  503  0.78346704664E+02 -0.82302243834E+02  0.12240753675E+02  0.11438440244E+03  0.47000000000E+01 0.  1.
          5    1    3    3  503    0  0.57663939623E+01 -0.13637339542E+03 -0.85338391171E+02  0.16104560002E+03  0.47000000000E+01 0.  1.
         -5    1    4    4    0  502 -0.10011600959E+03  0.17481959250E+03 -0.81373391308E+02  0.21732193656E+03  0.47000000000E+01 0.  1.
<mgrwt>
<rscale>  0 0.26203080E+03</rscale>
<asrwt>0</asrwt>
<pdfrwt beam="1">  1        2 0.53317732E-01 0.26555305E+03</pdfrwt>
<pdfrwt beam="2">  1       -2 0.29710521E-01 0.26555305E+03</pdfrwt>
<totfact> 0.97370696E+02</totfact>
</mgrwt>
</event>
<event>
 8    1  0.3551276E-004  0.1448107E+03  0.7546771E-02  0.1218095E+00
         -3   -1    0    0    0  501 -0.00000000000E+00  0.00000000000E+00  0.10832353280E+04  0.10832353280E+04  0.00000000000E+00 0.  1.
          3   -1    0    0  501    0  0.00000000000E+00 -0.00000000000E+00 -0.16508388053E+02  0.16508388053E+02  0.00000000000E+00 0. -1.
         25    2    1    2    0    0 -0.68062123749E+02 -0.26642301732E+02  0.72692769389E+03  0.74121118408E+03  0.12501152877E+03 0.  0.
         23    2    1    2    0    0  0.68062123749E+02  0.26642301732E+02  0.33979924608E+03  0.35853253200E+03  0.87976041822E+02 0.  0.
          5    1    4    4  502    0 -0.87249203304E+01 -0.20707107507E+02  0.50850056408E+02  0.55791816360E+02  0.47000000000E+01 0. -1.
         -5    1    3    3    0  503 -0.65710750593E+02 -0.67710162072E+02  0.36917347437E+03  0.38106917085E+03  0.47000000000E+01 0. -1.
          5    1    3    3  503    0 -0.23513731564E+01  0.41067860340E+02  0.35775421952E+03  0.36014201323E+03  0.47000000000E+01 0. -1.
         -5    1    4    4    0  502  0.76787044079E+02  0.47349409239E+02  0.28894918967E+03  0.30274071564E+03  0.47000000000E+01 0.  1.
<mgrwt>
<rscale>  0 0.13651646E+03</rscale>
<asrwt>0</asrwt>
<pdfrwt beam="1">  1        3 0.25397529E-02 0.14481073E+03</pdfrwt>
<pdfrwt beam="2">  1       -3 0.16665153E+00 0.14481073E+03</pdfrwt>
<totfact> 0.40591372E+02</totfact>
</mgrwt>
</event>
<event>
 8    1  0.3551276E-004  0.1337685E+03  0.7546771E-02  0.1231822E+00
         -1   -1    0    0    0  501 -0.00000000000E+00  0.00000000000E+00  0.11144579463E+03  0.11144579463E+03  0.00000000000E+00 0.  1.
          1   -1    0    0  501    0  0.00000000000E+00 -0.00000000000E+00 -0.15069137239E+03  0.15069137239E+03  0.00000000000E+00 0. -1.
         25    2    1    2    0    0 -0.22685293628E+02  0.41915775810E+02  0.24278042434E+02  0.13595376978E+03  0.12498979704E+03 0.  0.
         23    2    1    2    0    0  0.22685293628E+02 -0.41915775810E+02 -0.63523620188E+02  0.12618339724E+03  0.98058373474E+02 0.  0.
          5    1    3    3  502    0 -0.27912935460E+02  0.66616279048E+02 -0.28079986957E+02  0.77636565275E+02  0.47000000000E+01 0.  1.
         -5    1    3    3    0  502  0.52276418313E+01 -0.24700503239E+02  0.52358029391E+02  0.58317204503E+02  0.47000000000E+01 0.  1.
          5    1    4    4  503    0  0.11076914744E+02 -0.24594997749E+02 -0.88890609266E+02  0.93012054972E+02  0.47000000000E+01 0. -1.
         -5    1    4    4    0  503  0.11608378884E+02 -0.17320778061E+02  0.25366989078E+02  0.33171342267E+02  0.47000000000E+01 0. -1.
<mgrwt>
<rscale>  0 0.12710111E+03</rscale>
<asrwt>0</asrwt>
<pdfrwt beam="1">  1        1 0.23183288E-01 0.13376847E+03</pdfrwt>
<pdfrwt beam="2">  1       -1 0.17145507E-01 0.13376847E+03</pdfrwt>
<totfact> 0.52111699E+03</totfact>
</mgrwt>
</event>
<event>
 8    1  0.3551276E-004  0.1458860E+03  0.7546771E-02  0.1215341E+00
         -2   -1    0    0    0  501 -0.00000000000E+00  0.00000000000E+00  0.14842832709E+03  0.14842832709E+03  0.00000000000E+00 0.  1.
          2   -1    0    0  501    0  0.00000000000E+00 -0.00000000000E+00 -0.22322172299E+03  0.22322172299E+03  0.00000000000E+00 0. -1.
         25    2    1    2    0    0  0.17183528656E+02 -0.73245343519E+02 -0.16678489662E+03  0.22158504672E+03  0.12499030837E+03 0.  0.
         23    2    1    2    0    0 -0.17183528656E+02  0.73245343519E+02  0.91991500715E+02  0.15006500336E+03  0.91634682434E+02 0.  0.
          5    1    4    4  502    0 -0.40989846259E+02  0.25371111037E+02  0.61484625691E+01  0.48823706983E+02  0.47000000000E+01 0. -1.
         -5    1    4    4    0  502  0.23806317604E+02  0.47874232482E+02  0.85843038146E+02  0.10124129638E+03  0.47000000000E+01 0.  1.
          5    1    3    3  503    0 -0.38879953899E+02 -0.15224595709E+02 -0.12233416581E+03  0.12934905200E+03  0.47000000000E+01 0. -1.
         -5    1    3    3    0  503  0.56063482555E+02 -0.58020747810E+02 -0.44450730810E+02  0.92235994720E+02  0.47000000000E+01 0. -1.
<mgrwt>
<rscale>  0 0.13851510E+03</rscale>
<asrwt>0</asrwt>
<pdfrwt beam="1">  1        2 0.34341804E-01 0.14588602E+03</pdfrwt>
<pdfrwt beam="2">  1       -2 0.22835127E-01 0.14588602E+03</pdfrwt>
<totfact> 0.24536381E+03</totfact>
</mgrwt>
</event>
<event>
 8    1  0.3551276E-004  0.1433199E+03  0.7546771E-02  0.1219840E+00
         -2   -1    0    0    0  501 -0.00000000000E+00  0.00000000000E+00  0.29420299484E+02  0.29420299484E+02  0.00000000000E+00 0.  1.
          2   -1    0    0  501    0  0.00000000000E+00 -0.00000000000E+00 -0.11070078761E+04  0.11070078761E+04  0.00000000000E+00 0. -1.
         25    2    1    2    0    0  0.52685140659E+02  0.46275118913E+02 -0.96779183422E+03  0.97834637685E+03  0.12499395201E+03 0.  0.
         23    2    1    2    0    0 -0.52685140659E+02 -0.46275118913E+02 -0.10979574241E+03  0.15808179875E+03  0.89541271865E+02 0.  0.
          5    1    4    4  502    0 -0.50636285786E+02 -0.71513984193E+02 -0.88929891945E+02  0.12493557962E+03  0.47000000000E+01 0. -1.
         -5    1    3    3    0  503  0.88922410843E+02  0.52986168361E+02 -0.78569660574E+03  0.79249982679E+03  0.47000000000E+01 0.  1.
          5    1    3    3  503    0 -0.36237270185E+02 -0.67110494470E+01 -0.18209522847E+03  0.18584655006E+03  0.47000000000E+01 0.  1.
         -5    1    4    4    0  502 -0.20488548730E+01  0.25238865280E+02 -0.20865850464E+02  0.33146219128E+02  0.47000000000E+01 0.  1.
<mgrwt>
<rscale>  0 0.13526943E+03</rscale>
<asrwt>0</asrwt>
<pdfrwt beam="1">  1        2 0.17030887E+00 0.14331992E+03</pdfrwt>
<pdfrwt beam="2">  1       -2 0.45262008E-02 0.14331992E+03</pdfrwt>
<totfact> 0.50546734E+03</totfact>
</mgrwt>
</event>
<event>
 8    1  0.3551276E-004  0.1623081E+03  0.7546771E-02  0.1193301E+00
          1   -1    0    0  501    0  0.00000000000E+00  0.00000000000E+00  0.16760742139E+03  0.16760742139E+03  0.00000000000E+00 0. -1.
         -1   -1    0    0    0  501 -0.00000000000E+00 -0.00000000000E+00 -0.13693471098E+03  0.13693471098E+03  0.00000000000E+00 0.  1.
         25    2    1    2    0    0 -0.94488365496E+02  0.42321633137E+02 -0.17848176567E+01  0.16231788125E+03  0.12499894861E+03 0.  0.
         23    2    1    2    0    0  0.94488365496E+02 -0.42321633137E+02  0.32457528073E+02  0.14222425112E+03  0.91951479780E+02 0.  0.
          5    1    4    4  502    0  0.57351360307E+02  0.44663477850E+01  0.53518390675E+02  0.78711085192E+02  0.47000000000E+01 0. -1.
         -5    1    3    3    0  503 -0.43677831793E+02  0.19850180705E+02 -0.63123129943E+02  0.79425450568E+02  0.47000000000E+01 0.  1.
          5    1    3    3  503    0 -0.50810533703E+02  0.22471452432E+02  0.61338312286E+02  0.82892430678E+02  0.47000000000E+01 0.  1.
         -5    1    4    4    0  502  0.37137005189E+02 -0.46787980922E+02 -0.21060862602E+02  0.63513165932E+02  0.47000000000E+01 0.  1.
<mgrwt>
<rscale>  0 0.15598932E+03</rscale>
<asrwt>0</asrwt>
<pdfrwt beam="1">  1        1 0.25785757E-01 0.16230807E+03</pdfrwt>
<pdfrwt beam="2">  1       -1 0.21066879E-01 0.16230807E+03</pdfrwt>
<totfact> 0.33119819E+03</totfact>
</mgrwt>
</event>
<event>
 8    1  0.3551276E-004  0.1865335E+03  0.7546771E-02  0.1166755E+00
         -2   -1    0    0    0  501 -0.00000000000E+00  0.00000000000E+00  0.13005314987E+03  0.13005314987E+03  0.00000000000E+00 0.  1.
          2   -1    0    0  501    0  0.00000000000E+00 -0.00000000000E+00 -0.24402480217E+03  0.24402480217E+03  0.00000000000E+00 0. -1.
         25    2    1    2    0    0  0.12145581016E+03  0.66453882194E+02 -0.88438212110E+02  0.20643655848E+03  0.12500841185E+03 0.  0.
         23    2    1    2    0    0 -0.12145581016E+03 -0.66453882194E+02 -0.25533440190E+02  0.16764139356E+03  0.91016745635E+02 0.  0.
          5    1    4    4  502    0 -0.11278382298E+03 -0.20470465969E+02 -0.34429938202E+02  0.11977788339E+03  0.47000000000E+01 0. -1.
         -5    1    3    3    0  503  0.84142692733E+02  0.21286863370E+02 -0.11314708175E+03  0.14267962504E+03  0.47000000000E+01 0.  1.
          5    1    3    3  503    0  0.37313117431E+02  0.45167018824E+02  0.24708869643E+02  0.63756933434E+02  0.47000000000E+01 0.  1.
         -5    1    4    4    0  502 -0.86719871802E+01 -0.45983416226E+02  0.88964980119E+01  0.47863510175E+02  0.47000000000E+01 0.  1.
<mgrwt>
<rscale>  0 0.18108759E+03</rscale>
<asrwt>0</asrwt>
<pdfrwt beam="1">  1        2 0.37542276E-01 0.18653347E+03</pdfrwt>
<pdfrwt beam="2">  1       -2 0.20008177E-01 0.18653347E+03</pdfrwt>
<totfact> 0.28249096E+03</totfact>
</mgrwt>
</event>
<event>
 8    1  0.3551276E-004  0.3118148E+03  0.7546771E-02  0.1080968E+00
          2   -1    0    0  501    0  0.00000000000E+00  0.00000000000E+00  0.11736548417E+04  0.11736548417E+04  0.00000000000E+00 0. -1.
         -2   -1    0    0    0  501 -0.00000000000E+00 -0.00000000000E+00 -0.80545006859E+02  0.80545006859E+02  0.00000000000E+00 0.  1.
         25    2    1    2    0    0  0.74293303939E+02  0.27583368081E+03  0.62459668015E+03  0.69810421097E+03  0.12499904815E+03 0.  0.
         23    2    1    2    0    0 -0.74293303939E+02 -0.27583368081E+03  0.46851315468E+03  0.55609563758E+03  0.90189065556E+02 0.  0.
          5    1    3    3  502    0  0.98955323961E+02  0.22612371613E+03  0.56476830781E+03  0.61636792798E+03  0.47000000000E+01 0.  1.
         -5    1    4    4    0  503 -0.91854101597E+02 -0.19019342263E+03  0.34866148865E+03  0.40767344488E+03  0.47000000000E+01 0.  1.
          5    1    4    4  503    0  0.17560797658E+02 -0.85640258178E+02  0.11985166603E+03  0.14842219270E+03  0.47000000000E+01 0. -1.
         -5    1    3    3    0  502 -0.24662020022E+02  0.49709964681E+02  0.59828372345E+02  0.81736282993E+02  0.47000000000E+01 0.  1.
<mgrwt>
<rscale>  0 0.30870557E+03</rscale>
<asrwt>0</asrwt>
<pdfrwt beam="1">  1        2 0.18056227E+00 0.31181481E+03</pdfrwt>
<pdfrwt beam="2">  1       -2 0.12391540E-01 0.31181481E+03</pdfrwt>
<totfact> 0.97053972E+02</totfact>
</mgrwt>
</event>
<event>
 8    1  0.3551276E-004  0.1313025E+03  0.7546771E-02  0.1241133E+00
          1   -1    0    0  501    0  0.00000000000E+00  0.00000000000E+00  0.44377353907E+03  0.44377353907E+03  0.00000000000E+00 0. -1.
         -1   -1    0    0    0  501 -0.00000000000E+00 -0.00000000000E+00 -0.38288300516E+02  0.38288300516E+02  0.00000000000E+00 0.  1.
         25    2    1    2    0    0 -0.30415318546E+02  0.26279722759E+02  0.34508026996E+03  0.36921637597E+03  0.12499849654E+03 0.  0.
         23    2    1    2    0    0  0.30415318546E+02 -0.26279722759E+02  0.60404968599E+02  0.11284546362E+03  0.86426980732E+02 0.  0.
          5    1    3    3  502    0 -0.12208494022E+02  0.69465998620E+02  0.28058650690E+03  0.28935350377E+03  0.47000000000E+01 0. -1.
         -5    1    4    4    0  503 -0.33027705480E+00  0.27192659188E+02  0.18382514487E+01  0.27658976211E+02  0.47000000000E+01 0.  1.
          5    1    4    4  503    0  0.30745595600E+02 -0.53472381947E+02  0.58566717150E+02  0.85186487412E+02  0.47000000000E+01 0. -1.
         -5    1    3    3    0  502 -0.18206824524E+02 -0.43186275861E+02  0.64493763065E+02  0.79862872201E+02  0.47000000000E+01 0. -1.
<mgrwt>
<rscale>  0 0.12119852E+03</rscale>
<asrwt>0</asrwt>
<pdfrwt beam="1">  1        1 0.68272849E-01 0.13130247E+03</pdfrwt>
<pdfrwt beam="2">  1       -1 0.58905081E-02 0.13130247E+03</pdfrwt>
<totfact> 0.69409581E+03</totfact>
</mgrwt>
</event>
<event>
 8    1  0.3551276E-004  0.1376751E+03  0.7546771E-02  0.1228324E+00
         -1   -1    0    0    0  501 -0.00000000000E+00  0.00000000000E+00  0.12229700388E+03  0.12229700388E+03  0.00000000000E+00 0.  1.
          1   -1    0    0  501    0  0.00000000000E+00 -0.00000000000E+00 -0.12295796499E+03  0.12295796499E+03  0.00000000000E+00 0. -1.
         25    2    1    2    0    0  0.57589077776E+02 -0.36522295316E+01  0.27887330399E+01  0.13770332207E+03  0.12499834886E+03 0.  0.
         23    2    1    2    0    0 -0.57589077776E+02  0.36522295316E+01 -0.34496941572E+01  0.10755164680E+03  0.90695180030E+02 0.  0.
          5    1    4    4  502    0 -0.42255552868E+02 -0.10977400758E+02 -0.43618355341E+02  0.61892535885E+02  0.47000000000E+01 0. -1.
         -5    1    4    4    0  502 -0.15333524908E+02  0.14629630289E+02  0.40168661184E+02  0.45659110918E+02  0.47000000000E+01 0.  1.
          5    1    3    3  503    0  0.62285323228E+02  0.30697415570E+02  0.44999324157E+02  0.82878356565E+02  0.47000000000E+01 0. -1.
         -5    1    3    3    0  503 -0.46962454514E+01 -0.34349645102E+02 -0.42210591117E+02  0.54824965503E+02  0.47000000000E+01 0. -1.
<mgrwt>
<rscale>  0 0.12941657E+03</rscale>
<asrwt>0</asrwt>
<pdfrwt beam="1">  1        1 0.18916610E-01 0.13767508E+03</pdfrwt>
<pdfrwt beam="2">  1       -1 0.18814924E-01 0.13767508E+03</pdfrwt>
<totfact> 0.58282876E+03</totfact>
</mgrwt>
</event>
<event>
 8    1  0.3551276E-004  0.1295851E+03  0.7546771E-02  0.1242069E+00
         -2   -1    0    0    0  501 -0.00000000000E+00  0.00000000000E+00  0.28912481214E+03  0.28912481214E+03  0.00000000000E+00 0.  1.
          2   -1    0    0  501    0  0.00000000000E+00 -0.00000000000E+00 -0.44556548167E+02  0.44556548167E+02  0.00000000000E+00 0. -1.
         25    2    1    2    0    0  0.15380177923E+02  0.30392957022E+02  0.14509684814E+03  0.19453893382E+03  0.12502807573E+03 0.  0.
         23    2    1    2    0    0 -0.15380177923E+02 -0.30392957022E+02  0.99471415832E+02  0.13914242649E+03  0.91136000422E+02 0.  0.
          5    1    3    3  502    0  0.42735864204E+02 -0.34069603198E+02  0.89622980928E+02  0.10507835487E+03  0.47000000000E+01 0.  1.
         -5    1    3    3    0  502 -0.27355686282E+02  0.64462560221E+02  0.55473867214E+02  0.89460578948E+02  0.47000000000E+01 0.  1.
          5    1    4    4  503    0  0.80991211487E+01 -0.29523792823E+02 -0.55115819420E+01  0.31459778154E+02  0.47000000000E+01 0. -1.
         -5    1    4    4    0  503 -0.23479299071E+02 -0.86916419948E+00  0.10498299777E+03  0.10768264834E+03  0.47000000000E+01 0.  1.
<mgrwt>
<rscale>  0 0.12062503E+03</rscale>
<asrwt>0</asrwt>
<pdfrwt beam="1">  1        2 0.68548538E-02 0.12958511E+03</pdfrwt>
<pdfrwt beam="2">  1       -2 0.44480739E-01 0.12958511E+03</pdfrwt>
<totfact> 0.47636394E+03</totfact>
</mgrwt>
</event>
<event>
 8    1  0.3551276E-004  0.2404228E+03  0.7546771E-02  0.1122215E+00
          2   -1    0    0  501    0  0.00000000000E+00  0.00000000000E+00  0.30128820735E+03  0.30128820735E+03  0.00000000000E+00 0. -1.
         -2   -1    0    0    0  501 -0.00000000000E+00 -0.00000000000E+00 -0.18063030800E+03  0.18063030800E+03  0.00000000000E+00 0.  1.
         25    2    1    2    0    0  0.59657123459E+02 -0.19651665440E+03  0.81111176082E+02  0.25373639586E+03  0.12500147145E+03 0.  0.
         23    2    1    2    0    0 -0.59657123459E+02  0.19651665440E+03  0.39546723273E+02  0.22818211948E+03  0.91243457263E+02 0.  0.
          5    1    3    3  502    0  0.64734544512E+01 -0.10769914171E+03  0.10140055932E+03  0.14813903661E+03  0.47000000000E+01 0. -1.
         -5    1    3    3    0  502  0.53183669008E+02 -0.88817512694E+02 -0.20289383234E+02  0.10559735926E+03  0.47000000000E+01 0. -1.
          5    1    4    4  503    0 -0.81292654988E+02  0.13655399573E+03  0.41201709108E+02  0.16424116517E+03  0.47000000000E+01 0. -1.
         -5    1    4    4    0  503  0.21635531529E+02  0.59962658674E+02 -0.16549858351E+01  0.63940954309E+02  0.47000000000E+01 0.  1.
<mgrwt>
<rscale>  0 0.23639951E+03</rscale>
<asrwt>0</asrwt>
<pdfrwt beam="1">  1        2 0.46352032E-01 0.24042283E+03</pdfrwt>
<pdfrwt beam="2">  1       -2 0.27789278E-01 0.24042283E+03</pdfrwt>
<totfact> 0.12767720E+03</totfact>
</mgrwt>
</event>
<event>
 8    1  0.3551276E-004  0.1854837E+03  0.7546771E-02  0.1167724E+00
          2   -1    0    0  501    0  0.00000000000E+00  0.00000000000E+00  0.16768477422E+03  0.16768477422E+03  0.00000000000E+00 0.  1.
         -2   -1    0    0    0  501 -0.00000000000E+00 -0.00000000000E+00 -0.23420673680E+03  0.23420673680E+03  0.00000000000E+00 0. -1.
         25    2    1    2    0    0  0.70605945230E+02 -0.11744699494E+03  0.59099750331E+02  0.19467151675E+03  0.12500089129E+03 0.  0.
         23    2    1    2    0    0 -0.70605945230E+02  0.11744699494E+03 -0.12562171291E+03  0.20721999426E+03  0.91544061229E+02 0.  0.
          5    1    4    4  502    0 -0.12701727997E+02  0.53168652317E+02 -0.10452085963E+03  0.11804634506E+03  0.47000000000E+01 0. -1.
         -5    1    4    4    0  502 -0.57904217233E+02  0.64278342618E+02 -0.21100853277E+02  0.89173649203E+02  0.47000000000E+01 0.  1.
          5    1    3    3  503    0 -0.23377201851E+02 -0.74308029881E+02  0.45308525279E+02  0.90239289304E+02  0.47000000000E+01 0.  1.
         -5    1    3    3    0  503  0.93983147081E+02 -0.43138965054E+02  0.13791225053E+02  0.10443222745E+03  0.47000000000E+01 0.  1.
<mgrwt>
<rscale>  0 0.18008156E+03</rscale>
<asrwt>0</asrwt>
<pdfrwt beam="1">  1        2 0.25797658E-01 0.18548374E+03</pdfrwt>
<pdfrwt beam="2">  1       -2 0.36031806E-01 0.18548374E+03</pdfrwt>
<totfact> 0.14922273E+03</totfact>
</mgrwt>
</event>
<event>
 8    1  0.3551276E-004  0.1357902E+03  0.7546771E-02  0.1231284E+00
         -1   -1    0    0    0  501 -0.00000000000E+00  0.00000000000E+00  0.14268848289E+03  0.14268848289E+03  0.00000000000E+00 0.  1.
          1   -1    0    0  501    0  0.00000000000E+00 -0.00000000000E+00 -0.10193080309E+03  0.10193080309E+03  0.00000000000E+00 0. -1.
         25    2    1    2    0    0 -0.51206818806E+02 -0.13831709311E+02  0.21427248228E+02  0.13747034158E+03  0.12500205348E+03 0.  0.
         23    2    1    2    0    0  0.51206818806E+02  0.13831709311E+02  0.19330431567E+02  0.10714894440E+03  0.91070171989E+02 0.  0.
          5    1    4    4  502    0  0.70233023592E+02 -0.84697205225E+00 -0.75372560443E+01  0.70797564881E+02  0.47000000000E+01 0. -1.
         -5    1    3    3    0  503  0.13916902880E+02 -0.29003529942E+02  0.53931367525E+02  0.62972750758E+02  0.47000000000E+01 0. -1.
          5    1    3    3  503    0 -0.65123721686E+02  0.15171820631E+02 -0.32504119297E+02  0.74497590825E+02  0.47000000000E+01 0. -1.
         -5    1    4    4    0  502 -0.19026204785E+02  0.14678681363E+02  0.26867687611E+02  0.36351379515E+02  0.47000000000E+01 0.  1.
<mgrwt>
<rscale>  0 0.12745355E+03</rscale>
<asrwt>0</asrwt>
<pdfrwt beam="1">  1        1 0.15681662E-01 0.13579016E+03</pdfrwt>
<pdfrwt beam="2">  1       -1 0.21952075E-01 0.13579016E+03</pdfrwt>
<totfact> 0.57805614E+03</totfact>
</mgrwt>
</event>
<event>
 8    1  0.3551276E-004  0.1703887E+03  0.7546771E-02  0.1183844E+00
         -1   -1    0    0    0  501 -0.00000000000E+00  0.00000000000E+00  0.17612357920E+03  0.17612357920E+03  0.00000000000E+00 0.  1.
          1   -1    0    0  501    0  0.00000000000E+00 -0.00000000000E+00 -0.14442091134E+03  0.14442091134E+03  0.00000000000E+00 0. -1.
         25    2    1    2    0    0  0.18855497932E+02  0.11425432990E+03  0.29663927932E+02  0.17295162553E+03  0.12499093747E+03 0.  0.
         23    2    1    2    0    0 -0.18855497932E+02 -0.11425432990E+03  0.20387399361E+01  0.14759286501E+03  0.91487243039E+02 0.  0.
          5    1    4    4  502    0 -0.54355633593E+02 -0.82503986409E+02 -0.58679720034E+01  0.99085648669E+02  0.47000000000E+01 0. -1.
         -5    1    3    3    0  503  0.41910115863E+02  0.12866648913E+03  0.42951905859E+01  0.13546978224E+03  0.47000000000E+01 0.  1.
          5    1    3    3  503    0 -0.23054617931E+02 -0.14412159235E+02  0.25368737346E+02  0.37481843288E+02  0.47000000000E+01 0.  1.
         -5    1    4    4    0  502  0.35500135661E+02 -0.31750343490E+02  0.79067119395E+01  0.48507216343E+02  0.47000000000E+01 0.  1.
<mgrwt>
<rscale>  0 0.16437532E+03</rscale>
<asrwt>0</asrwt>
<pdfrwt beam="1">  1        1 0.22218602E-01 0.17038872E+03</pdfrwt>
<pdfrwt beam="2">  1       -1 0.27095935E-01 0.17038872E+03</pdfrwt>
<totfact> 0.26498160E+03</totfact>
</mgrwt>
</event>
<event>
 8    1  0.3551276E-004  0.1358592E+03  0.7546771E-02  0.1231103E+00
          1   -1    0    0  501    0  0.00000000000E+00  0.00000000000E+00  0.27974899241E+02  0.27974899241E+02  0.00000000000E+00 0. -1.
         -1   -1    0    0    0  501 -0.00000000000E+00 -0.00000000000E+00 -0.72709177044E+03  0.72709177044E+03  0.00000000000E+00 0.  1.
         25    2    1    2    0    0 -0.12608087597E+02 -0.51688646703E+02 -0.58072930979E+03  0.59640945892E+03  0.12500812518E+03 0.  0.
         23    2    1    2    0    0  0.12608087597E+02  0.51688646703E+02 -0.11838756141E+03  0.15865721077E+03  0.91245908190E+02 0.  0.
          5    1    4    4  502    0  0.27071989834E+02 -0.18604148524E+02 -0.30262052599E+02  0.44909785163E+02  0.47000000000E+01 0. -1.
         -5    1    3    3    0  503  0.46836371802E+02 -0.88093519217E+01 -0.10982386193E+03  0.11981077186E+03  0.47000000000E+01 0. -1.
          5    1    3    3  503    0 -0.59444459400E+02 -0.42879294781E+02 -0.47090544786E+03  0.47659868705E+03  0.47000000000E+01 0. -1.
         -5    1    4    4    0  502 -0.14463902237E+02  0.70292795227E+02 -0.88125508807E+02  0.11374742560E+03  0.47000000000E+01 0.  1.
<mgrwt>
<rscale>  0 0.12757268E+03</rscale>
<asrwt>0</asrwt>
<pdfrwt beam="1">  1        1 0.43038312E-02 0.13585916E+03</pdfrwt>
<pdfrwt beam="2">  1       -1 0.11186026E+00 0.13585916E+03</pdfrwt>
<totfact> 0.15616668E+03</totfact>
</mgrwt>
</event>
<event>
 8    1  0.3551276E-004  0.1462789E+03  0.7546771E-02  0.1215391E+00
         -1   -1    0    0    0  501 -0.00000000000E+00  0.00000000000E+00  0.18685151230E+02  0.18685151230E+02  0.00000000000E+00 0.  1.
          1   -1    0    0  501    0  0.00000000000E+00 -0.00000000000E+00 -0.93087581215E+03  0.93087581215E+03  0.00000000000E+00 0. -1.
         25    2    1    2    0    0 -0.54610782625E+02  0.52823423274E+02 -0.50879647610E+03  0.52940663496E+03  0.12499951771E+03 0.  0.
         23    2    1    2    0    0  0.54610782625E+02 -0.52823423274E+02 -0.40339418481E+03  0.42015432841E+03  0.89611046839E+02 0.  0.
          5    1    4    4  502    0 -0.22196333117E+02  0.59639222904E+00 -0.10398883220E+03  0.10643683625E+03  0.47000000000E+01 0. -1.
         -5    1    3    3    0  503 -0.62158230227E+02  0.53054121912E+01 -0.44493141405E+03  0.44930818621E+03  0.47000000000E+01 0.  1.
          5    1    3    3  503    0  0.75474476020E+01  0.47518011083E+02 -0.63865062047E+02  0.80098448754E+02  0.47000000000E+01 0.  1.
         -5    1    4    4    0  502  0.76807115742E+02 -0.53419815504E+02 -0.29940535261E+03  0.31371749216E+03  0.47000000000E+01 0.  1.
<mgrwt>
<rscale>  0 0.13847846E+03</rscale>
<asrwt>0</asrwt>
<pdfrwt beam="1">  1        1 0.14321165E+00 0.14627895E+03</pdfrwt>
<pdfrwt beam="2">  1       -1 0.28746390E-02 0.14627895E+03</pdfrwt>
<totfact> 0.70586850E+03</totfact>
</mgrwt>
</event>
<event>
 8    1  0.3551276E-004  0.1348617E+03  0.7546771E-02  0.1232581E+00
         -1   -1    0    0    0  501 -0.00000000000E+00  0.00000000000E+00  0.10604873139E+03  0.10604873139E+03  0.00000000000E+00 0.  1.
          1   -1    0    0  501    0  0.00000000000E+00 -0.00000000000E+00 -0.13584701386E+03  0.13584701386E+03  0.00000000000E+00 0. -1.
         25    2    1    2    0    0  0.40375782148E+02  0.30542059280E+02 -0.24048461076E+02  0.13698903826E+03  0.12499858781E+03 0.  0.
         23    2    1    2    0    0 -0.40375782148E+02 -0.30542059280E+02 -0.57498213864E+01  0.10490670699E+03  0.91702429387E+02 0.  0.
          5    1    4    4  502    0 -0.31878046637E+02  0.25100598406E+02 -0.21649128958E+02  0.46227964290E+02  0.47000000000E+01 0. -1.
         -5    1    4    4    0  502 -0.84977355110E+01 -0.55642657686E+02  0.15899307572E+02  0.58678742696E+02  0.47000000000E+01 0.  1.
          5    1    3    3  503    0  0.50424647973E+02  0.72981208668E+02 -0.44440421826E+01  0.88942349040E+02  0.47000000000E+01 0. -1.
         -5    1    3    3    0  503 -0.10048865824E+02 -0.42439149389E+02 -0.19604418893E+02  0.48046689223E+02  0.47000000000E+01 0. -1.
<mgrwt>
<rscale>  0 0.12660588E+03</rscale>
<asrwt>0</asrwt>
<pdfrwt beam="1">  1        1 0.20899541E-01 0.13486166E+03</pdfrwt>
<pdfrwt beam="2">  1       -1 0.16315189E-01 0.13486166E+03</pdfrwt>
<totfact> 0.64287963E+03</totfact>
</mgrwt>
</event>
<event>
 8    1  0.3551276E-004  0.1593339E+03  0.7546771E-02  0.1198732E+00
         -2   -1    0    0    0  501 -0.00000000000E+00  0.00000000000E+00  0.31908869522E+02  0.31908869522E+02  0.00000000000E+00 0. -1.
          2   -1    0    0  501    0  0.00000000000E+00 -0.00000000000E+00 -0.10978829218E+04  0.10978829218E+04  0.00000000000E+00 0.  1.
         25    2    1    2    0    0 -0.82138643660E+02  0.54933259932E+02 -0.92265430506E+03  0.93631098800E+03  0.12499151883E+03 0.  0.
         23    2    1    2    0    0  0.82138643660E+02 -0.54933259932E+02 -0.14331974721E+03  0.19348080331E+03  0.84438447886E+02 0.  0.
          5    1    3    3  502    0 -0.11089521759E+03  0.40890089428E+02 -0.82506001069E+03  0.83349616672E+03  0.47000000000E+01 0.  1.
         -5    1    3    3    0  502  0.28756573926E+02  0.14043170503E+02 -0.97594294370E+02  0.10281482128E+03  0.47000000000E+01 0.  1.
          5    1    4    4  503    0  0.54815901314E+02 -0.76294428533E+02 -0.93775950307E+02  0.13282184202E+03  0.47000000000E+01 0. -1.
         -5    1    4    4    0  503  0.27322742346E+02  0.21361168602E+02 -0.49543796905E+02  0.60658961293E+02  0.47000000000E+01 0.  1.
<mgrwt>
<rscale>  0 0.15142536E+03</rscale>
<asrwt>0</asrwt>
<pdfrwt beam="1">  1        2 0.16890505E+00 0.15933392E+03</pdfrwt>
<pdfrwt beam="2">  1       -2 0.49090573E-02 0.15933392E+03</pdfrwt>
<totfact> 0.45442744E+03</totfact>
</mgrwt>
</event>
<event>
 8    1  0.3551276E-004  0.1533390E+03  0.7546771E-02  0.1206036E+00
          1   -1    0    0  501    0  0.00000000000E+00  0.00000000000E+00  0.56546158222E+02  0.56546158222E+02  0.00000000000E+00 0. -1.
         -1   -1    0    0    0  501 -0.00000000000E+00 -0.00000000000E+00 -0.34140846398E+03  0.34140846398E+03  0.00000000000E+00 0.  1.
         25    2    1    2    0    0  0.88797499399E+02  0.17639640184E+01 -0.15412221531E+03  0.21740859297E+03  0.12499892631E+03 0.  0.
         23    2    1    2    0    0 -0.88797499399E+02 -0.17639640184E+01 -0.13074009046E+03  0.18054602923E+03  0.87268493461E+02 0.  0.
          5    1    4    4  502    0 -0.34246987603E+02  0.39047855664E+02 -0.34462988763E+02  0.62509029638E+02  0.47000000000E+01 0. -1.
         -5    1    4    4    0  502 -0.54550511796E+02 -0.40811819683E+02 -0.96277101692E+02  0.11803699959E+03  0.47000000000E+01 0.  1.
          5    1    3    3  503    0  0.75241652384E+02 -0.35340279200E+02 -0.15680238202E+03  0.17753680913E+03  0.47000000000E+01 0.  1.
         -5    1    3    3    0  503  0.13555847015E+02  0.37104243218E+02  0.26801667194E+01  0.39871783842E+02  0.47000000000E+01 0.  1.
<mgrwt>
<rscale>  0 0.14556083E+03</rscale>
<asrwt>0</asrwt>
<pdfrwt beam="1">  1        1 0.86994090E-02 0.15333897E+03</pdfrwt>
<pdfrwt beam="2">  1       -1 0.52524379E-01 0.15333897E+03</pdfrwt>
<totfact> 0.28219129E+03</totfact>
</mgrwt>
</event>
<event>
 8    1  0.3551276E-004  0.1330481E+03  0.7546771E-02  0.1236302E+00
         -3   -1    0    0    0  501 -0.00000000000E+00  0.00000000000E+00  0.20216728341E+02  0.20216728341E+02  0.00000000000E+00 0.  1.
          3   -1    0    0  501    0  0.00000000000E+00 -0.00000000000E+00 -0.69043595534E+03  0.69043595534E+03  0.00000000000E+00 0. -1.
         25    2    1    2    0    0 -0.14920681529E+02  0.43046784855E+02 -0.42755130662E+03  0.44777440870E+03  0.12500459537E+03 0.  0.
         23    2    1    2    0    0  0.14920681529E+02 -0.43046784855E+02 -0.24266792038E+03  0.26287827499E+03  0.90230900785E+02 0.  0.
          5    1    4    4  502    0  0.19318204118E+01  0.28099651520E+02 -0.72368885920E+02  0.77798894561E+02  0.47000000000E+01 0. -1.
         -5    1    4    4    0  502  0.12988861117E+02 -0.71146436374E+02 -0.17029903446E+03  0.18507938043E+03  0.47000000000E+01 0.  1.
          5    1    3    3  503    0 -0.48940540870E+02  0.46069825673E+02 -0.11467164777E+03  0.13300106082E+03  0.47000000000E+01 0. -1.
         -5    1    3    3    0  503  0.34019859341E+02 -0.30230408186E+01 -0.31287965886E+03  0.31477334787E+03  0.47000000000E+01 0. -1.
<mgrwt>
<rscale>  0 0.12421481E+03</rscale>
<asrwt>0</asrwt>
<pdfrwt beam="1">  1        3 0.10622090E+00 0.13304812E+03</pdfrwt>
<pdfrwt beam="2">  1       -3 0.31102663E-02 0.13304812E+03</pdfrwt>
<totfact> 0.87585940E+02</totfact>
</mgrwt>
</event>
<event>
 8    1  0.3551276E-004  0.1255564E+03  0.7546771E-02  0.1255533E+00
          2   -1    0    0  501    0  0.00000000000E+00  0.00000000000E+00  0.10668841855E+04  0.10668841855E+04  0.00000000000E+00 0.  1.
         -2   -1    0    0    0  501 -0.00000000000E+00 -0.00000000000E+00 -0.10778480556E+02  0.10778480556E+02  0.00000000000E+00 0. -1.
         25    2    1    2    0    0  0.62499914936E+01  0.10062451387E+02  0.49669803242E+03  0.51232152997E+03  0.12499639730E+03 0.  0.
         23    2    1    2    0    0 -0.62499914936E+01 -0.10062451387E+02  0.55940767257E+03  0.56534113613E+03  0.80829083581E+02 0.  0.
          5    1    3    3  502    0  0.13304897313E+02 -0.56557875559E+02  0.24139288247E+03  0.24833128535E+03  0.47000000000E+01 0.  1.
         -5    1    4    4    0  503  0.61055470135E+01 -0.44032432470E+02  0.27549736812E+03  0.27910038097E+03  0.47000000000E+01 0.  1.
          5    1    4    4  503    0 -0.12355538507E+02  0.33969981083E+02  0.28391030445E+03  0.28624075516E+03  0.47000000000E+01 0. -1.
         -5    1    3    3    0  502 -0.70549058198E+01  0.66620326946E+02  0.25530514995E+03  0.26399024461E+03  0.47000000000E+01 0.  1.
<mgrwt>
<rscale>  0 0.11276509E+03</rscale>
<asrwt>0</asrwt>
<pdfrwt beam="1">  1        2 0.16413595E+00 0.12555642E+03</pdfrwt>
<pdfrwt beam="2">  1       -2 0.16582286E-02 0.12555642E+03</pdfrwt>
<totfact> 0.23067902E+04</totfact>
</mgrwt>
</event>
<event>
 8    1  0.3551276E-004  0.1413201E+03  0.7546771E-02  0.1221924E+00
         -3   -1    0    0    0  501 -0.00000000000E+00  0.00000000000E+00  0.39740820672E+02  0.39740820672E+02  0.00000000000E+00 0. -1.
          3   -1    0    0  501    0  0.00000000000E+00 -0.00000000000E+00 -0.60035136081E+03  0.60035136081E+03  0.00000000000E+00 0.  1.
         25    2    1    2    0    0  0.80060724530E+01  0.65445643151E+02 -0.12097538369E+03  0.18602800247E+03  0.12499657931E+03 0.  0.
         23    2    1    2    0    0 -0.80060724530E+01 -0.65445643151E+02 -0.43963515644E+03  0.45406417902E+03  0.92455278276E+02 0.  0.
          5    1    4    4  502    0 -0.30441370040E+02  0.46662859436E+01 -0.63096689234E+02  0.70368554246E+02  0.47000000000E+01 0. -1.
         -5    1    4    4    0  502  0.22435297587E+02 -0.70111929095E+02 -0.37653846721E+03  0.38369562477E+03  0.47000000000E+01 0.  1.
          5    1    3    3  503    0  0.35401985628E+02 -0.17937430932E+02 -0.46551764127E+01  0.40234471319E+02  0.47000000000E+01 0.  1.
         -5    1    3    3    0  503 -0.27395913176E+02  0.83383074083E+02 -0.11632020728E+03  0.14579353115E+03  0.47000000000E+01 0.  1.
<mgrwt>
<rscale>  0 0.13380013E+03</rscale>
<asrwt>0</asrwt>
<pdfrwt beam="1">  1        3 0.92361735E-01 0.14132011E+03</pdfrwt>
<pdfrwt beam="2">  1       -3 0.61139732E-02 0.14132011E+03</pdfrwt>
<totfact> 0.41896654E+02</totfact>
</mgrwt>
</event>
<event>
 8    1  0.3551276E-004  0.1410827E+03  0.7546771E-02  0.1222408E+00
         -4   -1    0    0    0  501 -0.00000000000E+00  0.00000000000E+00  0.18705200664E+03  0.18705200664E+03  0.00000000000E+00 0.  1.
          4   -1    0    0  501    0  0.00000000000E+00 -0.00000000000E+00 -0.86273077935E+02  0.86273077935E+02  0.00000000000E+00 0. -1.
         25    2    1    2    0    0  0.41336625333E+02  0.50772577588E+02  0.55082303284E+02  0.15145425597E+03  0.12497103779E+03 0.  0.
         23    2    1    2    0    0 -0.41336625333E+02 -0.50772577588E+02  0.45696625419E+02  0.12187082860E+03  0.92074676543E+02 0.  0.
          5    1    4    4  502    0 -0.35031851719E+02 -0.13780673289E+02 -0.22342641455E+02  0.44027505248E+02  0.47000000000E+01 0. -1.
         -5    1    4    4    0  502 -0.63047736144E+01 -0.36991904299E+02  0.68039266874E+02  0.77843323354E+02  0.47000000000E+01 0.  1.
          5    1    3    3  503    0  0.41754772820E+02  0.12053691635E+02 -0.33231263819E+02  0.54910467402E+02  0.47000000000E+01 0.  1.
         -5    1    3    3    0  503 -0.41814748675E+00  0.38718885953E+02  0.88313567103E+02  0.96543788568E+02  0.47000000000E+01 0.  1.
<mgrwt>
<rscale>  0 0.13346121E+03</rscale>
<asrwt>0</asrwt>
<pdfrwt beam="1">  1        4 0.13272781E-01 0.14108271E+03</pdfrwt>
<pdfrwt beam="2">  1       -4 0.28777232E-01 0.14108271E+03</pdfrwt>
<totfact> 0.89442798E+02</totfact>
</mgrwt>
</event>
<event>
 8    1  0.3551276E-004  0.1643898E+03  0.7546771E-02  0.1191036E+00
         -2   -1    0    0    0  501 -0.00000000000E+00  0.00000000000E+00  0.14043592425E+02  0.14043592425E+02  0.00000000000E+00 0.  1.
          2   -1    0    0  501    0  0.00000000000E+00 -0.00000000000E+00 -0.16504602408E+04  0.16504602408E+04  0.00000000000E+00 0. -1.
         25    2    1    2    0    0  0.35804447477E+01 -0.10671039513E+03 -0.88976168369E+03  0.90482034748E+03  0.12499631771E+03 0.  0.
         23    2    1    2    0    0 -0.35804447477E+01  0.10671039513E+03 -0.74665496468E+03  0.75968348574E+03  0.90694179576E+02 0.  0.
          5    1    3    3  502    0  0.12675323420E+01  0.28581389903E+02 -0.15924696181E+03  0.16186471923E+03  0.47000000000E+01 0.  1.
         -5    1    4    4    0  503  0.39357975151E+02  0.60743135895E+02 -0.30263109317E+03  0.31120161844E+03  0.47000000000E+01 0.  1.
          5    1    4    4  503    0 -0.42938419898E+02  0.45967259236E+02 -0.44402387151E+03  0.44848186729E+03  0.47000000000E+01 0. -1.
         -5    1    3    3    0  502  0.23129124056E+01 -0.13529178503E+03 -0.73051472188E+03  0.74295562825E+03  0.47000000000E+01 0.  1.
<mgrwt>
<rscale>  0 0.15794590E+03</rscale>
<asrwt>0</asrwt>
<pdfrwt beam="1">  1        2 0.25391686E+00 0.16438980E+03</pdfrwt>
<pdfrwt beam="2">  1       -2 0.21605535E-02 0.16438980E+03</pdfrwt>
<totfact> 0.77273108E+03</totfact>
</mgrwt>
</event>
<event>
 8    1  0.3551276E-004  0.1262364E+03  0.7546771E-02  0.1248517E+00
          2   -1    0    0  501    0  0.00000000000E+00  0.00000000000E+00  0.31905821394E+03  0.31905821394E+03  0.00000000000E+00 0. -1.
         -2   -1    0    0    0  501 -0.00000000000E+00 -0.00000000000E+00 -0.40445976895E+02  0.40445976895E+02  0.00000000000E+00 0.  1.
         25    2    1    2    0    0  0.12930086305E+02  0.12033599651E+02  0.11100982666E+03  0.16810356316E+03  0.12499452660E+03 0.  0.
         23    2    1    2    0    0 -0.12930086305E+02 -0.12033599651E+02  0.16760241038E+03  0.19140062767E+03  0.90728372927E+02 0.  0.
          5    1    4    4  502    0  0.36530222393E+02  0.86307437557E+01  0.57112731371E+02  0.68504751445E+02  0.47000000000E+01 0.  1.
         -5    1    4    4    0  502 -0.49460308698E+02 -0.20664343406E+02  0.11048967901E+03  0.12289587622E+03  0.47000000000E+01 0. -1.
          5    1    3    3  503    0 -0.37227473542E+02 -0.37225498803E+02  0.30138035909E+02  0.60844176023E+02  0.47000000000E+01 0. -1.
         -5    1    3    3    0  503  0.50157559847E+02  0.49259098454E+02  0.80871790748E+02  0.10725938714E+03  0.47000000000E+01 0. -1.
<mgrwt>
<rscale>  0 0.11677335E+03</rscale>
<asrwt>0</asrwt>
<pdfrwt beam="1">  1        2 0.49085878E-01 0.12623639E+03</pdfrwt>
<pdfrwt beam="2">  1       -2 0.62224582E-02 0.12623639E+03</pdfrwt>
<totfact> 0.13390164E+04</totfact>
</mgrwt>
</event>
<event>
 8    1  0.3551276E-004  0.1364151E+03  0.7546771E-02  0.1230277E+00
          1   -1    0    0  501    0  0.00000000000E+00  0.00000000000E+00  0.10183967274E+03  0.10183967274E+03  0.00000000000E+00 0. -1.
         -1   -1    0    0    0  501 -0.00000000000E+00 -0.00000000000E+00 -0.14480624584E+03  0.14480624584E+03  0.00000000000E+00 0.  1.
         25    2    1    2    0    0 -0.22218425034E+02 -0.49915675621E+02 -0.30523348703E+02  0.13978827752E+03  0.12499541844E+03 0.  0.
         23    2    1    2    0    0  0.22218425034E+02  0.49915675621E+02 -0.12443224401E+02  0.10685764106E+03  0.90986199695E+02 0.  0.
          5    1    4    4  502    0  0.33486492093E+02  0.82022082628E+01  0.30122457734E+02  0.46022536142E+02  0.47000000000E+01 0. -1.
         -5    1    4    4    0  502 -0.11268067059E+02  0.41713467358E+02 -0.42565682134E+02  0.60835104913E+02  0.47000000000E+01 0.  1.
          5    1    3    3  503    0 -0.52846706147E+02 -0.36249808187E+02  0.29628118243E+02  0.70758309299E+02  0.47000000000E+01 0. -1.
         -5    1    3    3    0  503  0.30628281114E+02 -0.13665867434E+02 -0.60151466946E+02  0.69029968220E+02  0.47000000000E+01 0. -1.
<mgrwt>
<rscale>  0 0.12811711E+03</rscale>
<asrwt>0</asrwt>
<pdfrwt beam="1">  1        1 0.15667642E-01 0.13641513E+03</pdfrwt>
<pdfrwt beam="2">  1       -1 0.22277884E-01 0.13641513E+03</pdfrwt>
<totfact> 0.56523264E+03</totfact>
</mgrwt>
</event>
<event>
 8    1  0.3551276E-004  0.1531092E+03  0.7546771E-02  0.1204817E+00
          2   -1    0    0  501    0  0.00000000000E+00  0.00000000000E+00  0.13771484396E+04  0.13771484396E+04  0.00000000000E+00 0.  1.
         -2   -1    0    0    0  501 -0.00000000000E+00 -0.00000000000E+00 -0.22377979393E+02  0.22377979393E+02  0.00000000000E+00 0. -1.
         25    2    1    2    0    0 -0.78911122241E+02 -0.39868077179E+02  0.11327401750E+04  0.11430409981E+04  0.12500396175E+03 0.  0.
         23    2    1    2    0    0  0.78911122241E+02  0.39868077179E+02  0.22203028517E+03  0.25648542087E+03  0.93117639548E+02 0.  0.
          5    1    3    3  502    0 -0.66770467628E+02  0.34343480560E+02  0.66947457719E+03  0.67368840684E+03  0.47000000000E+01 0.  1.
         -5    1    3    3    0  502 -0.12140654613E+02 -0.74211557738E+02  0.46326559785E+03  0.46935259128E+03  0.47000000000E+01 0.  1.
          5    1    4    4  503    0  0.64944476140E+02  0.23008560342E+00  0.58360581036E+02  0.87440753310E+02  0.47000000000E+01 0. -1.
         -5    1    4    4    0  503  0.13966646101E+02  0.39637991575E+02  0.16366970413E+03  0.16904466756E+03  0.47000000000E+01 0.  1.
<mgrwt>
<rscale>  0 0.14651925E+03</rscale>
<asrwt>0</asrwt>
<pdfrwt beam="1">  1        2 0.21186892E+00 0.15310917E+03</pdfrwt>
<pdfrwt beam="2">  1       -2 0.34427671E-02 0.15310917E+03</pdfrwt>
<totfact> 0.54050202E+03</totfact>
</mgrwt>
</event>
<event>
 8    1  0.3551276E-004  0.1306701E+03  0.7546771E-02  0.1236522E+00
         -2   -1    0    0    0  501 -0.00000000000E+00  0.00000000000E+00  0.80129759114E+02  0.80129759114E+02  0.00000000000E+00 0.  1.
          2   -1    0    0  501    0  0.00000000000E+00 -0.00000000000E+00 -0.17735424653E+03  0.17735424653E+03  0.00000000000E+00 0. -1.
         25    2    1    2    0    0 -0.92710289832E+01  0.36950965639E+02 -0.39069271041E+02  0.13638574204E+03  0.12499334723E+03 0.  0.
         23    2    1    2    0    0  0.92710289832E+01 -0.36950965639E+02 -0.58155216373E+02  0.12109826361E+03  0.99153590036E+02 0.  0.
          5    1    3    3  502    0 -0.29134944329E+02  0.42911920477E+02 -0.76965810893E+02  0.92930640515E+02  0.47000000000E+01 0. -1.
         -5    1    4    4    0  503 -0.89267528743E+01 -0.59319219816E+02 -0.49186731036E+01  0.60371682945E+02  0.47000000000E+01 0.  1.
          5    1    4    4  503    0  0.18197781858E+02  0.22368254178E+02 -0.53236543270E+02  0.60726580661E+02  0.47000000000E+01 0. -1.
         -5    1    3    3    0  502  0.19863915346E+02 -0.59609548384E+01  0.37896539852E+02  0.43455101521E+02  0.47000000000E+01 0. -1.
<mgrwt>
<rscale>  0 0.12407491E+03</rscale>
<asrwt>0</asrwt>
<pdfrwt beam="1">  1        2 0.27285268E-01 0.13067005E+03</pdfrwt>
<pdfrwt beam="2">  1       -2 0.12327655E-01 0.13067005E+03</pdfrwt>
<totfact> 0.86897407E+03</totfact>
</mgrwt>
</event>
<event>
 8    1  0.3551276E-004  0.1293268E+03  0.7546771E-02  0.1242545E+00
          3   -1    0    0  501    0  0.00000000000E+00  0.00000000000E+00  0.24846263386E+03  0.24846263386E+03  0.00000000000E+00 0. -1.
         -3   -1    0    0    0  501 -0.00000000000E+00 -0.00000000000E+00 -0.54619265227E+02  0.54619265227E+02  0.00000000000E+00 0.  1.
         25    2    1    2    0    0 -0.18871131817E+02  0.27263952820E+02  0.74220671916E+02  0.14911116634E+03  0.12500395613E+03 0.  0.
         23    2    1    2    0    0  0.18871131817E+02 -0.27263952820E+02  0.11962269672E+03  0.15397073275E+03  0.91093107491E+02 0.  0.
          5    1    4    4  502    0  0.37906099132E+02 -0.10247585141E+02  0.12166348062E+03  0.12792958168E+03  0.47000000000E+01 0. -1.
         -5    1    4    4    0  502 -0.19034967315E+02 -0.17016367679E+02 -0.20407839036E+01  0.26041151062E+02  0.47000000000E+01 0.  1.
          5    1    3    3  503    0 -0.57902188267E+02 -0.20625040617E+02  0.58957494285E+02  0.85300245246E+02  0.47000000000E+01 0.  1.
         -5    1    3    3    0  503  0.39031056451E+02  0.47888993437E+02  0.15263177631E+02  0.63810921098E+02  0.47000000000E+01 0.  1.
<mgrwt>
<rscale>  0 0.12033513E+03</rscale>
<asrwt>0</asrwt>
<pdfrwt beam="1">  1        3 0.38225020E-01 0.12932684E+03</pdfrwt>
<pdfrwt beam="2">  1       -3 0.84029640E-02 0.12932684E+03</pdfrwt>
<totfact> 0.15213664E+03</totfact>
</mgrwt>
</event>
<event>
 8    1  0.3551276E-004  0.1650952E+03  0.7546771E-02  0.1190156E+00
         -1   -1    0    0    0  501 -0.00000000000E+00  0.00000000000E+00  0.67440469312E+02  0.67440469312E+02  0.00000000000E+00 0.  1.
          1   -1    0    0  501    0  0.00000000000E+00 -0.00000000000E+00 -0.35433371801E+03  0.35433371801E+03  0.00000000000E+00 0. -1.
         25    2    1    2    0    0 -0.10778235694E+03 -0.39121500582E+01 -0.12499259208E+03  0.20707387005E+03  0.12499639273E+03 0.  0.
         23    2    1    2    0    0  0.10778235694E+03  0.39121500582E+01 -0.16190065662E+03  0.21470031727E+03  0.90840862151E+02 0.  0.
          5    1    3    3  502    0 -0.73014213885E+02 -0.55964137464E+02 -0.10818926742E+03  0.14209175802E+03  0.47000000000E+01 0.  1.
         -5    1    4    4    0  503  0.81422485543E+02 -0.85739885797E+01 -0.43821819254E+02  0.92981591054E+02  0.47000000000E+01 0.  1.
          5    1    4    4  503    0  0.26359871401E+02  0.12486138638E+02 -0.11807883737E+03  0.12171872622E+03  0.47000000000E+01 0. -1.
         -5    1    3    3    0  502 -0.34768143059E+02  0.52051987406E+02 -0.16803324657E+02  0.64982112033E+02  0.47000000000E+01 0.  1.
<mgrwt>
<rscale>  0 0.15871391E+03</rscale>
<asrwt>0</asrwt>
<pdfrwt beam="1">  1        1 0.54512880E-01 0.16509524E+03</pdfrwt>
<pdfrwt beam="2">  1       -1 0.10375457E-01 0.16509524E+03</pdfrwt>
<totfact> 0.39716757E+03</totfact>
</mgrwt>
</event>
<event>
 8    1  0.3551276E-004  0.1575706E+03  0.7546771E-02  0.1198624E+00
         -2   -1    0    0    0  501 -0.00000000000E+00  0.00000000000E+00  0.17763503756E+02  0.17763503756E+02  0.00000000000E+00 0.  1.
          2   -1    0    0  501    0  0.00000000000E+00 -0.00000000000E+00 -0.12594551614E+04  0.12594551614E+04  0.00000000000E+00 0. -1.
         25    2    1    2    0    0 -0.21493352962E+02  0.93498062520E+02 -0.80287359915E+03  0.81818978386E+03  0.12499861716E+03 0.  0.
         23    2    1    2    0    0  0.21493352962E+02 -0.93498062520E+02 -0.43881805852E+03  0.45902888131E+03  0.94564123659E+02 0.  0.
          5    1    3    3  502    0  0.52283614842E+02  0.34516765915E+02 -0.33939465131E+03  0.34516054648E+03  0.47000000000E+01 0.  1.
         -5    1    4    4    0  503  0.26161717377E+02 -0.18763336245E+02 -0.33031565501E+02  0.46364561495E+02  0.47000000000E+01 0.  1.
          5    1    4    4  503    0 -0.46683644152E+01 -0.74734726275E+02 -0.40578649302E+03  0.41266431982E+03  0.47000000000E+01 0. -1.
         -5    1    3    3    0  502 -0.73776967803E+02  0.58981296605E+02 -0.46347894784E+03  0.47302923738E+03  0.47000000000E+01 0.  1.
<mgrwt>
<rscale>  0 0.15151470E+03</rscale>
<asrwt>0</asrwt>
<pdfrwt beam="1">  1        2 0.19376232E+00 0.15757064E+03</pdfrwt>
<pdfrwt beam="2">  1       -2 0.27328469E-02 0.15757064E+03</pdfrwt>
<totfact> 0.88076883E+03</totfact>
</mgrwt>
</event>
<event>
 8    1  0.3551276E-004  0.1313268E+03  0.7546771E-02  0.1238485E+00
          1   -1    0    0  501    0  0.00000000000E+00  0.00000000000E+00  0.38005524874E+02  0.38005524874E+02  0.00000000000E+00 0. -1.
         -1   -1    0    0    0  501 -0.00000000000E+00 -0.00000000000E+00 -0.62366087709E+03  0.62366087709E+03  0.00000000000E+00 0.  1.
         25    2    1    2    0    0  0.16737892957E+02  0.36625534533E+02 -0.98275716414E+02  0.16402697096E+03  0.12500057569E+03 0.  0.
         23    2    1    2    0    0 -0.16737892957E+02 -0.36625534533E+02 -0.48737963580E+03  0.49763943100E+03  0.92111383975E+02 0.  0.
          5    1    3    3  502    0  0.44893183902E+02  0.23488877467E+02 -0.11690366155E+03  0.12749777021E+03  0.47000000000E+01 0. -1.
         -5    1    3    3    0  502 -0.28155290945E+02  0.13136657066E+02  0.18627945135E+02  0.36529200744E+02  0.47000000000E+01 0. -1.
          5    1    4    4  503    0 -0.45906599599E+02 -0.40028117010E+01 -0.13955604766E+03  0.14704223484E+03  0.47000000000E+01 0. -1.
         -5    1    4    4    0  503  0.29168706642E+02 -0.32622722832E+02 -0.34782358814E+03  0.35059719616E+03  0.47000000000E+01 0.  1.
<mgrwt>
<rscale>  0 0.12283948E+03</rscale>
<asrwt>0</asrwt>
<pdfrwt beam="1">  1        1 0.58470041E-02 0.13132681E+03</pdfrwt>
<pdfrwt beam="2">  1       -1 0.95947823E-01 0.13132681E+03</pdfrwt>
<totfact> 0.14441135E+03</totfact>
</mgrwt>
</event>
<event>
 8    1  0.3551276E-004  0.1387358E+03  0.7546771E-02  0.1226749E+00
         -1   -1    0    0    0  501 -0.00000000000E+00  0.00000000000E+00  0.21903488554E+03  0.21903488554E+03  0.00000000000E+00 0.  1.
          1   -1    0    0  501    0  0.00000000000E+00 -0.00000000000E+00 -0.69804218472E+02  0.69804218472E+02  0.00000000000E+00 0. -1.
         25    2    1    2    0    0 -0.33180139797E+02  0.50213384458E+02  0.81538712669E+02  0.16092292440E+03  0.12500128110E+03 0.  0.
         23    2    1    2    0    0  0.33180139797E+02 -0.50213384458E+02  0.67691954395E+02  0.12791617961E+03  0.90321883623E+02 0.  0.
          5    1    4    4  502    0  0.43276187897E+02  0.65421352485E+01  0.78905451112E+01  0.44721121125E+02  0.47000000000E+01 0. -1.
         -5    1    3    3    0  503 -0.43975184189E+02 -0.32150460297E+02  0.41181940728E+02  0.68450793742E+02  0.47000000000E+01 0. -1.
          5    1    3    3  503    0  0.10795044392E+02  0.82363844755E+02  0.40356771941E+02  0.92472130654E+02  0.47000000000E+01 0. -1.
         -5    1    4    4    0  502 -0.10096048100E+02 -0.56755519707E+02  0.59801409284E+02  0.83195058488E+02  0.47000000000E+01 0.  1.
<mgrwt>
<rscale>  0 0.13047767E+03</rscale>
<asrwt>0</asrwt>
<pdfrwt beam="1">  1        1 0.10739111E-01 0.13873581E+03</pdfrwt>
<pdfrwt beam="2">  1       -1 0.33697674E-01 0.13873581E+03</pdfrwt>
<totfact> 0.46580125E+03</totfact>
</mgrwt>
</event>
<event>
 8    1  0.3551276E-004  0.1759131E+03  0.7546771E-02  0.1178580E+00
          2   -1    0    0  501    0  0.00000000000E+00  0.00000000000E+00  0.98189275622E+03  0.98189275622E+03  0.00000000000E+00 0. -1.
         -2   -1    0    0    0  501 -0.00000000000E+00 -0.00000000000E+00 -0.27196644282E+02  0.27196644282E+02  0.00000000000E+00 0.  1.
         25    2    1    2    0    0  0.12090953952E+03  0.26489708408E+02  0.51232139309E+03  0.54168128297E+03  0.12499832442E+03 0.  0.
         23    2    1    2    0    0 -0.12090953952E+03 -0.26489708408E+02  0.44237471885E+03  0.46740811753E+03  0.86337332916E+02 0.  0.
          5    1    4    4  502    0 -0.65530909776E+02  0.16177516760E+02  0.31349234661E+03  0.32071101255E+03  0.47000000000E+01 0. -1.
         -5    1    3    3    0  503  0.75865334989E+02  0.43370497320E+02  0.46797300665E+03  0.47608546927E+03  0.47000000000E+01 0. -1.
          5    1    3    3  503    0  0.45044204536E+02 -0.16880788911E+02  0.44348386437E+02  0.65595813708E+02  0.47000000000E+01 0. -1.
         -5    1    4    4    0  502 -0.55378629749E+02 -0.42667225168E+02  0.12888237223E+03  0.14669710498E+03  0.47000000000E+01 0.  1.
<mgrwt>
<rscale>  0 0.16929953E+03</rscale>
<asrwt>0</asrwt>
<pdfrwt beam="1">  1        2 0.15106040E+00 0.17591305E+03</pdfrwt>
<pdfrwt beam="2">  1       -2 0.41840999E-02 0.17591305E+03</pdfrwt>
<totfact> 0.67907469E+03</totfact>
</mgrwt>
</event>
<event>
 8    1  0.3551276E-004  0.1706471E+03  0.7546771E-02  0.1183709E+00
          2   -1    0    0  501    0  0.00000000000E+00  0.00000000000E+00  0.11013927943E+03  0.11013927943E+03  0.00000000000E+00 0. -1.
         -2   -1    0    0    0  501 -0.00000000000E+00 -0.00000000000E+00 -0.24678192477E+03  0.24678192477E+03  0.00000000000E+00 0.  1.
         25    2    1    2    0    0 -0.11543092392E+03 -0.13110165845E+02 -0.25915099983E+02  0.17260366525E+03  0.12499703278E+03 0.  0.
         23    2    1    2    0    0  0.11543092392E+03  0.13110165845E+02 -0.11072754535E+03  0.18431753896E+03  0.90643208365E+02 0.  0.
          5    1    3    3  502    0 -0.38851633363E+02 -0.66428357235E+02 -0.85340373416E+01  0.77569941686E+02  0.47000000000E+01 0.  1.
         -5    1    4    4    0  503  0.80297990317E+02 -0.18484906622E+02 -0.10910778381E+03  0.13680664279E+03  0.47000000000E+01 0.  1.
          5    1    4    4  503    0  0.35132933601E+02  0.31595072467E+02 -0.16197615389E+01  0.47510896172E+02  0.47000000000E+01 0. -1.
         -5    1    3    3    0  502 -0.76579290555E+02  0.53318191390E+02 -0.17381062641E+02  0.95033723559E+02  0.47000000000E+01 0.  1.
<mgrwt>
<rscale>  0 0.16449874E+03</rscale>
<asrwt>0</asrwt>
<pdfrwt beam="1">  1        2 0.16944505E-01 0.17064710E+03</pdfrwt>
<pdfrwt beam="2">  1       -2 0.37966449E-01 0.17064710E+03</pdfrwt>
<totfact> 0.21725423E+03</totfact>
</mgrwt>
</event>
<event>
 8    1  0.3551276E-004  0.1994782E+03  0.7546771E-02  0.1154706E+00
         -2   -1    0    0    0  501 -0.00000000000E+00  0.00000000000E+00  0.66648258822E+02  0.66648258822E+02  0.00000000000E+00 0.  1.
          2   -1    0    0  501    0  0.00000000000E+00 -0.00000000000E+00 -0.54255098505E+03  0.54255098505E+03  0.00000000000E+00 0. -1.
         25    2    1    2    0    0  0.11902898478E+03  0.99998537363E+02 -0.27806464755E+03  0.34221559195E+03  0.12499582578E+03 0.  0.
         23    2    1    2    0    0 -0.11902898478E+03 -0.99998537363E+02 -0.19783807868E+03  0.26698365193E+03  0.89290303675E+02 0.  0.
          5    1    4    4  502    0 -0.13078748253E+03 -0.74097152164E+02 -0.16837820165E+03  0.22576328828E+03  0.47000000000E+01 0. -1.
         -5    1    3    3    0  503  0.82229276568E+02  0.47029170571E+02 -0.54289129350E+02  0.10928310196E+03  0.47000000000E+01 0.  1.
          5    1    3    3  503    0  0.36799708208E+02  0.52969366792E+02 -0.22377551820E+03  0.23293248998E+03  0.47000000000E+01 0.  1.
         -5    1    4    4    0  502  0.11758497753E+02 -0.25901385199E+02 -0.29459877031E+02  0.41220363649E+02  0.47000000000E+01 0.  1.
<mgrwt>
<rscale>  0 0.19422404E+03</rscale>
<asrwt>0</asrwt>
<pdfrwt beam="1">  1        2 0.83469380E-01 0.19947823E+03</pdfrwt>
<pdfrwt beam="2">  1       -2 0.10253579E-01 0.19947823E+03</pdfrwt>
<totfact> 0.35655901E+03</totfact>
</mgrwt>
</event>
<event>
 8    1  0.3551276E-004  0.1348396E+03  0.7546771E-02  0.1233317E+00
         -1   -1    0    0    0  501 -0.00000000000E+00  0.00000000000E+00  0.70957676807E+02  0.70957676807E+02  0.00000000000E+00 0.  1.
          1   -1    0    0  501    0  0.00000000000E+00 -0.00000000000E+00 -0.20684464827E+03  0.20684464827E+03  0.00000000000E+00 0. -1.
         25    2    1    2    0    0 -0.42624614665E+02 -0.27186436582E+02 -0.51022431817E+02  0.14417005507E+03  0.12500302444E+03 0.  0.
         23    2    1    2    0    0  0.42624614665E+02  0.27186436582E+02 -0.84864539650E+02  0.13363227002E+03  0.89997963256E+02 0.  0.
          5    1    4    4  502    0  0.70226646842E+02  0.26533452521E+02 -0.61864459660E+02  0.97391516049E+02  0.47000000000E+01 0. -1.
         -5    1    3    3    0  503 -0.12695050752E+02 -0.20783032369E+02 -0.90591084934E+02  0.93925147951E+02  0.47000000000E+01 0.  1.
          5    1    3    3  503    0 -0.29929563912E+02 -0.64034042125E+01  0.39568653117E+02  0.50244907115E+02  0.47000000000E+01 0.  1.
         -5    1    4    4    0  502 -0.27602032177E+02  0.65298406074E+00 -0.23000079990E+02  0.36240753967E+02  0.47000000000E+01 0.  1.
<mgrwt>
<rscale>  0 0.12612764E+03</rscale>
<asrwt>0</asrwt>
<pdfrwt beam="1">  1        1 0.31822254E-01 0.13483959E+03</pdfrwt>
<pdfrwt beam="2">  1       -1 0.10916566E-01 0.13483959E+03</pdfrwt>
<totfact> 0.70879629E+03</totfact>
</mgrwt>
</event>
<event>
 8    1  0.3551276E-004  0.1339012E+03  0.7546771E-02  0.1234737E+00
          4   -1    0    0  501    0  0.00000000000E+00  0.00000000000E+00  0.18637659653E+03  0.18637659653E+03  0.00000000000E+00 0.  1.
         -4   -1    0    0    0  501 -0.00000000000E+00 -0.00000000000E+00 -0.87342149794E+02  0.87342149794E+02  0.00000000000E+00 0. -1.
         25    2    1    2    0    0 -0.27078938922E+02  0.39654131619E+02  0.10645741774E+03  0.17106345356E+03  0.12499521697E+03 0.  0.
         23    2    1    2    0    0  0.27078938922E+02 -0.39654131619E+02 -0.74229710085E+01  0.10265529276E+03  0.90428366925E+02 0.  0.
          5    1    4    4  502    0 -0.31808073715E+02 -0.24655655031E+02 -0.97032598425E+01  0.41664110816E+02  0.47000000000E+01 0. -1.
         -5    1    3    3    0  503 -0.46903033845E+02 -0.33550083590E+02  0.48483217965E+02  0.75486522750E+02  0.47000000000E+01 0. -1.
          5    1    3    3  503    0  0.19824094922E+02  0.73204215209E+02  0.57974199776E+02  0.95576930813E+02  0.47000000000E+01 0. -1.
         -5    1    4    4    0  502  0.58887012638E+02 -0.14998476588E+02  0.22802888340E+01  0.60991181941E+02  0.47000000000E+01 0.  1.
<mgrwt>
<rscale>  0 0.12521288E+03</rscale>
<asrwt>0</asrwt>
<pdfrwt beam="1">  1        4 0.28673323E-01 0.13390117E+03</pdfrwt>
<pdfrwt beam="2">  1       -4 0.13437254E-01 0.13390117E+03</pdfrwt>
<totfact> 0.87229282E+02</totfact>
</mgrwt>
</event>
<event>
 8    1  0.3551276E-004  0.1676482E+03  0.7546771E-02  0.1187028E+00
         -2   -1    0    0    0  501 -0.00000000000E+00  0.00000000000E+00  0.85833075874E+02  0.85833075874E+02  0.00000000000E+00 0.  1.
          2   -1    0    0  501    0  0.00000000000E+00 -0.00000000000E+00 -0.99678230860E+03  0.99678230860E+03  0.00000000000E+00 0. -1.
         25    2    1    2    0    0 -0.10299813307E+03 -0.43270792507E+02 -0.92270145031E+03  0.93780801966E+03  0.12499975379E+03 0.  0.
         23    2    1    2    0    0  0.10299813307E+03  0.43270792507E+02  0.11752217575E+02  0.14480736481E+03  0.91378779739E+02 0.  0.
          5    1    4    4  502    0  0.73812431819E+02  0.70223713990E+02  0.20076207587E+02  0.10394608799E+03  0.47000000000E+01 0. -1.
         -5    1    4    4    0  502  0.29185701251E+02 -0.26952921482E+02 -0.83239900116E+01  0.40861276824E+02  0.47000000000E+01 0.  1.
          5    1    3    3  503    0  0.90703969304E+01 -0.45882255191E+02 -0.15560553952E+03  0.16255038410E+03  0.47000000000E+01 0. -1.
         -5    1    3    3    0  503 -0.11206853000E+03  0.26114626834E+01 -0.76709591079E+03  0.77525763557E+03  0.47000000000E+01 0. -1.
<mgrwt>
<rscale>  0 0.16148719E+03</rscale>
<asrwt>0</asrwt>
<pdfrwt beam="1">  1        2 0.15335112E+00 0.16764819E+03</pdfrwt>
<pdfrwt beam="2">  1       -2 0.13205089E-01 0.16764819E+03</pdfrwt>
<totfact> 0.11190196E+03</totfact>
</mgrwt>
</event>
<event>
 8    1  0.3551276E-004  0.1446392E+03  0.7546771E-02  0.1217197E+00
         -1   -1    0    0    0  501 -0.00000000000E+00  0.00000000000E+00  0.75033686870E+02  0.75033686870E+02  0.00000000000E+00 0.  1.
          1   -1    0    0  501    0  0.00000000000E+00 -0.00000000000E+00 -0.23042124320E+03  0.23042124320E+03  0.00000000000E+00 0. -1.
         25    2    1    2    0    0  0.46352551476E+02  0.56096693506E+02 -0.10126388343E+03  0.17656403469E+03  0.12500034483E+03 0.  0.
         23    2    1    2    0    0 -0.46352551476E+02 -0.56096693506E+02 -0.54123672901E+02  0.12889089538E+03  0.91586532270E+02 0.  0.
          5    1    3    3  502    0 -0.19319109057E+02  0.73714529783E+02 -0.57293866492E+02  0.95455418985E+02  0.47000000000E+01 0.  1.
         -5    1    3    3    0  502  0.65671660533E+02 -0.17617836277E+02 -0.43970016941E+02  0.81108615708E+02  0.47000000000E+01 0.  1.
          5    1    4    4  503    0 -0.25065139088E+02 -0.71552226948E+02 -0.65062229292E+02  0.10001582904E+03  0.47000000000E+01 0. -1.
         -5    1    4    4    0  503 -0.21287412388E+02  0.15455533441E+02  0.10938556391E+02  0.28875066339E+02  0.47000000000E+01 0.  1.
<mgrwt>
<rscale>  0 0.13716364E+03</rscale>
<asrwt>0</asrwt>
<pdfrwt beam="1">  1        1 0.35449421E-01 0.14463915E+03</pdfrwt>
<pdfrwt beam="2">  1       -1 0.11543644E-01 0.14463915E+03</pdfrwt>
<totfact> 0.57151569E+03</totfact>
</mgrwt>
</event>
<event>
 8    1  0.3551276E-004  0.2753982E+03  0.7546771E-02  0.1100215E+00
         -1   -1    0    0    0  501 -0.00000000000E+00  0.00000000000E+00  0.13383814872E+03  0.13383814872E+03  0.00000000000E+00 0.  1.
          1   -1    0    0  501    0  0.00000000000E+00 -0.00000000000E+00 -0.54383810606E+03  0.54383810606E+03  0.00000000000E+00 0. -1.
         25    2    1    2    0    0 -0.18333091142E+03  0.16311591177E+03 -0.17681648012E+03  0.32727393273E+03  0.12500854231E+03 0.  0.
         23    2    1    2    0    0  0.18333091142E+03 -0.16311591177E+03 -0.23318347723E+03  0.35040232205E+03  0.90499886691E+02 0.  0.
          5    1    4    4  502    0  0.10324445512E+03 -0.10510769154E+03 -0.79192543270E+02  0.16733377795E+03  0.47000000000E+01 0. -1.
         -5    1    3    3    0  503 -0.93042078971E+02  0.51142826974E+01 -0.63075178051E+02  0.11262127877E+03  0.47000000000E+01 0.  1.
          5    1    3    3  503    0 -0.90288832446E+02  0.15800162907E+03 -0.11374130207E+03  0.21465265396E+03  0.47000000000E+01 0.  1.
         -5    1    4    4    0  502  0.80086456299E+02 -0.58008220227E+02 -0.15399093396E+03  0.18306854409E+03  0.47000000000E+01 0.  1.
<mgrwt>
<rscale>  0 0.27186830E+03</rscale>
<asrwt>0</asrwt>
<pdfrwt beam="1">  1        1 0.83667400E-01 0.27539818E+03</pdfrwt>
<pdfrwt beam="2">  1       -1 0.20590485E-01 0.27539818E+03</pdfrwt>
<totfact> 0.77700594E+02</totfact>
</mgrwt>
</event>
<event>
 8    1  0.3551276E-004  0.1951670E+03  0.7546771E-02  0.1158213E+00
          3   -1    0    0  501    0  0.00000000000E+00  0.00000000000E+00  0.49704294747E+03  0.49704294747E+03  0.00000000000E+00 0. -1.
         -3   -1    0    0    0  501 -0.00000000000E+00 -0.00000000000E+00 -0.72881140273E+02  0.72881140273E+02  0.00000000000E+00 0.  1.
         25    2    1    2    0    0 -0.22683501986E+02 -0.14815791526E+03  0.16024595332E+03  0.25252507256E+03  0.12499935038E+03 0.  0.
         23    2    1    2    0    0  0.22683501986E+02  0.14815791526E+03  0.26391585387E+03  0.31739901518E+03  0.92872212198E+02 0.  0.
          5    1    4    4  502    0  0.31369323243E+01  0.95260680061E+02  0.23545101394E+03  0.25405453642E+03  0.47000000000E+01 0. -1.
         -5    1    3    3    0  503 -0.57897853445E+02 -0.13310091938E+03  0.85807279195E+02  0.16868015691E+03  0.47000000000E+01 0.  1.
          5    1    3    3  503    0  0.35214351459E+02 -0.15056995885E+02  0.74438674129E+02  0.83844915646E+02  0.47000000000E+01 0.  1.
         -5    1    4    4    0  502  0.19546569662E+02  0.52897235201E+02  0.28464839927E+02  0.63344478762E+02  0.47000000000E+01 0.  1.
<mgrwt>
<rscale>  0 0.19027569E+03</rscale>
<asrwt>0</asrwt>
<pdfrwt beam="1">  1        3 0.76468143E-01 0.19516697E+03</pdfrwt>
<pdfrwt beam="2">  1       -3 0.11212483E-01 0.19516697E+03</pdfrwt>
<totfact> 0.24441426E+02</totfact>
</mgrwt>
</event>
<event>
 8    1  0.3551276E-004  0.1313581E+03  0.7546771E-02  0.1238012E+00
          1   -1    0    0  501    0  0.00000000000E+00  0.00000000000E+00  0.13254112159E+04  0.13254112159E+04  0.00000000000E+00 0. -1.
         -1   -1    0    0    0  501 -0.00000000000E+00 -0.00000000000E+00 -0.10241319800E+02  0.10241319800E+02  0.00000000000E+00 0.  1.
         25    2    1    2    0    0  0.10850020775E+02  0.38842643726E+02  0.71268835007E+03  0.72469279377E+03  0.12501394761E+03 0.  0.
         23    2    1    2    0    0 -0.10850020775E+02 -0.38842643726E+02  0.60248154606E+03  0.61095974196E+03  0.93066207764E+02 0.  0.
          5    1    3    3  502    0 -0.34349588926E+02  0.67927170924E+02  0.36937318673E+03  0.37716393768E+03  0.47000000000E+01 0.  1.
         -5    1    4    4    0  503 -0.25033869796E+02 -0.64519325285E+02  0.35604316712E+03  0.36273718423E+03  0.47000000000E+01 0.  1.
          5    1    4    4  503    0  0.14183849020E+02  0.25676681559E+02  0.24643837894E+03  0.24822255773E+03  0.47000000000E+01 0. -1.
         -5    1    3    3    0  502  0.45199609702E+02 -0.29084527198E+02  0.34331516334E+03  0.34752885609E+03  0.47000000000E+01 0.  1.
<mgrwt>
<rscale>  0 0.12313543E+03</rscale>
<asrwt>0</asrwt>
<pdfrwt beam="1">  1        1 0.20390928E+00 0.13135814E+03</pdfrwt>
<pdfrwt beam="2">  1       -1 0.15755887E-02 0.13135814E+03</pdfrwt>
<totfact> 0.88438586E+03</totfact>
</mgrwt>
</event>
<event>
 8    1  0.3551276E-004  0.1383918E+03  0.7546771E-02  0.1227000E+00
         -2   -1    0    0    0  501 -0.00000000000E+00  0.00000000000E+00  0.20214342423E+02  0.20214342423E+02  0.00000000000E+00 0. -1.
          2   -1    0    0  501    0  0.00000000000E+00 -0.00000000000E+00 -0.78864901179E+03  0.78864901179E+03  0.00000000000E+00 0.  1.
         25    2    1    2    0    0 -0.59338612340E+02  0.23438575162E+01 -0.51057434356E+03  0.52899759175E+03  0.12500290873E+03 0.  0.
         23    2    1    2    0    0  0.59338612340E+02 -0.23438575162E+01 -0.25786032581E+03  0.27986576247E+03  0.91139084882E+02 0.  0.
          5    1    4    4  502    0  0.28021279748E+02  0.29320781602E+02 -0.38970938780E+02  0.56442221979E+02  0.47000000000E+01 0. -1.
         -5    1    3    3    0  503  0.64293743398E+01  0.37629285770E+02 -0.53759798832E+02  0.66102238785E+02  0.47000000000E+01 0. -1.
          5    1    3    3  503    0 -0.65767986679E+02 -0.35285428254E+02 -0.45681454473E+03  0.46289535296E+03  0.47000000000E+01 0. -1.
         -5    1    4    4    0  502  0.31317332592E+02 -0.31664639118E+02 -0.21888938703E+03  0.22342354049E+03  0.47000000000E+01 0.  1.
<mgrwt>
<rscale>  0 0.13030743E+03</rscale>
<asrwt>0</asrwt>
<pdfrwt beam="1">  1        2 0.12133060E+00 0.13839181E+03</pdfrwt>
<pdfrwt beam="2">  1       -2 0.31098993E-02 0.13839181E+03</pdfrwt>
<totfact> 0.13857417E+04</totfact>
</mgrwt>
</event>
<event>
 8    1  0.3551276E-004  0.1280925E+03  0.7546771E-02  0.1247180E+00
          2   -1    0    0  501    0  0.00000000000E+00  0.00000000000E+00  0.30550425062E+03  0.30550425062E+03  0.00000000000E+00 0. -1.
         -2   -1    0    0    0  501 -0.00000000000E+00 -0.00000000000E+00 -0.40961224320E+02  0.40961224320E+02  0.00000000000E+00 0.  1.
         25    2    1    2    0    0 -0.27646927472E+02 -0.44565878573E+01  0.18886739310E+03  0.22820730638E+03  0.12499387480E+03 0.  0.
         23    2    1    2    0    0  0.27646927472E+02  0.44565878573E+01  0.75675633197E+02  0.11825816855E+03  0.86452178662E+02 0.  0.
          5    1    3    3  502    0 -0.64860204215E+02  0.21519904864E+02  0.58475734950E+02  0.90063610710E+02  0.47000000000E+01 0.  1.
         -5    1    3    3    0  502  0.37213276743E+02 -0.25976492721E+02  0.13039165815E+03  0.13814369568E+03  0.47000000000E+01 0.  1.
          5    1    4    4  503    0  0.57579586017E+02  0.13035003409E+02  0.46016010592E+02  0.74999221800E+02  0.47000000000E+01 0. -1.
         -5    1    4    4    0  503 -0.29932658545E+02 -0.85784155522E+01  0.29659622605E+02  0.43258946752E+02  0.47000000000E+01 0.  1.
<mgrwt>
<rscale>  0 0.11755831E+03</rscale>
<asrwt>0</asrwt>
<pdfrwt beam="1">  1        2 0.47000652E-01 0.12809248E+03</pdfrwt>
<pdfrwt beam="2">  1       -2 0.63017270E-02 0.12809248E+03</pdfrwt>
<totfact> 0.13769261E+04</totfact>
</mgrwt>
</event>
<event>
 8    1  0.3551276E-004  0.2033096E+03  0.7546771E-02  0.1151318E+00
         -2   -1    0    0    0  501 -0.00000000000E+00  0.00000000000E+00  0.24044524990E+03  0.24044524990E+03  0.00000000000E+00 0.  1.
          2   -1    0    0  501    0  0.00000000000E+00 -0.00000000000E+00 -0.16575298764E+03  0.16575298764E+03  0.00000000000E+00 0. -1.
         25    2    1    2    0    0  0.12473676087E+03  0.10075658904E+03  0.89617350011E+02  0.22218478520E+03  0.12499463830E+03 0.  0.
         23    2    1    2    0    0 -0.12473676087E+03 -0.10075658904E+03 -0.14925087743E+02  0.18401345234E+03  0.89033941012E+02 0.  0.
          5    1    4    4  502    0 -0.74598249647E+02 -0.64785293633E+01  0.53731234126E+01  0.75218552554E+02  0.47000000000E+01 0. -1.
         -5    1    4    4    0  502 -0.50138511220E+02 -0.94278059677E+02 -0.20298211156E+02  0.10879489979E+03  0.47000000000E+01 0.  1.
          5    1    3    3  503    0  0.67051869712E+02 -0.77498815962E+01  0.70526835612E+02  0.97735042017E+02  0.47000000000E+01 0.  1.
         -5    1    3    3    0  503  0.57684891155E+02  0.10850647064E+03  0.19090514398E+02  0.12444974318E+03  0.47000000000E+01 0.  1.
<mgrwt>
<rscale>  0 0.19814018E+03</rscale>
<asrwt>0</asrwt>
<pdfrwt beam="1">  1        2 0.25500460E-01 0.20330964E+03</pdfrwt>
<pdfrwt beam="2">  1       -2 0.36991577E-01 0.20330964E+03</pdfrwt>
<totfact> 0.14427786E+03</totfact>
</mgrwt>
</event>
<event>
 8    1  0.3551276E-004  0.1563461E+03  0.7546771E-02  0.1201130E+00
         -2   -1    0    0    0  501 -0.00000000000E+00  0.00000000000E+00  0.44739262908E+02  0.44739262908E+02  0.00000000000E+00 0.  1.
          2   -1    0    0  501    0  0.00000000000E+00 -0.00000000000E+00 -0.47041392619E+03  0.47041392619E+03  0.00000000000E+00 0. -1.
         25    2    1    2    0    0  0.89207671800E+02 -0.29334690900E+02 -0.26955800048E+03  0.31161772903E+03  0.12500224248E+03 0.  0.
         23    2    1    2    0    0 -0.89207671800E+02  0.29334690900E+02 -0.15611666280E+03  0.20353546007E+03  0.90750968606E+02 0.  0.
          5    1    4    4  502    0 -0.38502703567E+02  0.43224094874E+02 -0.13449065344E+03  0.14649439042E+03  0.47000000000E+01 0. -1.
         -5    1    3    3    0  503  0.15284552223E+02 -0.59343528693E+02 -0.18644465923E+03  0.19631345571E+03  0.47000000000E+01 0.  1.
          5    1    3    3  503    0  0.73923119576E+02  0.30008837793E+02 -0.83113341249E+02  0.11530427333E+03  0.47000000000E+01 0.  1.
         -5    1    4    4    0  502 -0.50704968233E+02 -0.13889403974E+02 -0.21626009356E+02  0.57041069651E+02  0.47000000000E+01 0.  1.
<mgrwt>
<rscale>  0 0.14946667E+03</rscale>
<asrwt>0</asrwt>
<pdfrwt beam="1">  1        2 0.72371376E-01 0.15634607E+03</pdfrwt>
<pdfrwt beam="2">  1       -2 0.68829633E-02 0.15634607E+03</pdfrwt>
<totfact> 0.76928019E+03</totfact>
</mgrwt>
</event>
<event>
 8    1  0.3551276E-004  0.1256953E+03  0.7546771E-02  0.1249270E+00
          2   -1    0    0  501    0  0.00000000000E+00  0.00000000000E+00  0.41310938630E+03  0.41310938630E+03  0.00000000000E+00 0. -1.
         -2   -1    0    0    0  501 -0.00000000000E+00 -0.00000000000E+00 -0.34184509239E+02  0.34184509239E+02  0.00000000000E+00 0.  1.
         25    2    1    2    0    0 -0.66339180159E+01 -0.11397287200E+02  0.12556024599E+03  0.17766451629E+03  0.12500159179E+03 0.  0.
         23    2    1    2    0    0  0.66339180159E+01  0.11397287200E+02  0.25336463107E+03  0.26962937925E+03  0.91282303074E+02 0.  0.
          5    1    4    4  502    0 -0.21489601591E+02 -0.58853963392E+01  0.22413516621E+03  0.22528893359E+03  0.47000000000E+01 0. -1.
         -5    1    3    3    0  503 -0.45484335911E+02 -0.13236677284E+02  0.12980468124E+03  0.13825838025E+03  0.47000000000E+01 0.  1.
          5    1    3    3  503    0  0.38850417895E+02  0.18393900842E+01 -0.42444352479E+01  0.39406136033E+02  0.47000000000E+01 0.  1.
         -5    1    4    4    0  502  0.28123519607E+02  0.17282683539E+02  0.29229464861E+02  0.44340445661E+02  0.47000000000E+01 0.  1.
<mgrwt>
<rscale>  0 0.11633416E+03</rscale>
<asrwt>0</asrwt>
<pdfrwt beam="1">  1        2 0.63555287E-01 0.12569529E+03</pdfrwt>
<pdfrwt beam="2">  1       -2 0.52591556E-02 0.12569529E+03</pdfrwt>
<totfact> 0.13115761E+04</totfact>
</mgrwt>
</event>
<event>
 8    1  0.3551276E-004  0.1347709E+03  0.7546771E-02  0.1232680E+00
          3   -1    0    0  501    0  0.00000000000E+00  0.00000000000E+00  0.31901123461E+02  0.31901123461E+02  0.00000000000E+00 0. -1.
         -3   -1    0    0    0  501 -0.00000000000E+00 -0.00000000000E+00 -0.45722779021E+03  0.45722779021E+03  0.00000000000E+00 0.  1.
         25    2    1    2    0    0 -0.24941384351E+02  0.43765509518E+02 -0.27025236659E+03  0.30199259158E+03  0.12500276494E+03 0.  0.
         23    2    1    2    0    0  0.24941384351E+02 -0.43765509518E+02 -0.15507430016E+03  0.18713632209E+03  0.91839381528E+02 0.  0.
          5    1    3    3  502    0 -0.22116066968E+01  0.63986510476E+02 -0.54956828741E+02  0.84507441994E+02  0.47000000000E+01 0. -1.
         -5    1    4    4    0  503 -0.22318070967E+02  0.14253504577E+02 -0.23583134533E+02  0.35770279826E+02  0.47000000000E+01 0.  1.
          5    1    4    4  503    0  0.47259455318E+02 -0.58019014095E+02 -0.13149116562E+03  0.15136604226E+03  0.47000000000E+01 0. -1.
         -5    1    3    3    0  502 -0.22729777654E+02 -0.20221000958E+02 -0.21529553785E+03  0.21748514959E+03  0.47000000000E+01 0. -1.
<mgrwt>
<rscale>  0 0.12654137E+03</rscale>
<asrwt>0</asrwt>
<pdfrwt beam="1">  1        3 0.49078652E-02 0.13477086E+03</pdfrwt>
<pdfrwt beam="2">  1       -3 0.70342737E-01 0.13477086E+03</pdfrwt>
<totfact> 0.10650519E+03</totfact>
</mgrwt>
</event>
<event>
 8    1  0.3551276E-004  0.1761497E+03  0.7546771E-02  0.1178461E+00
          1   -1    0    0  501    0  0.00000000000E+00  0.00000000000E+00  0.68791997344E+03  0.68791997344E+03  0.00000000000E+00 0. -1.
         -1   -1    0    0    0  501 -0.00000000000E+00 -0.00000000000E+00 -0.39069572949E+02  0.39069572949E+02  0.00000000000E+00 0.  1.
         25    2    1    2    0    0  0.76349062364E+02  0.97843525715E+02  0.32094242563E+03  0.36610484413E+03  0.12500472582E+03 0.  0.
         23    2    1    2    0    0 -0.76349062364E+02 -0.97843525715E+02  0.32790797485E+03  0.36088470225E+03  0.85507856364E+02 0.  0.
          5    1    3    3  502    0  0.10181004079E+03  0.36023386489E+02  0.17845630207E+03  0.20864254247E+03  0.47000000000E+01 0.  1.
         -5    1    4    4    0  503 -0.28643172983E+02 -0.52304454381E+01  0.19587209025E+02  0.35405333996E+02  0.47000000000E+01 0.  1.
          5    1    4    4  503    0 -0.47705889381E+02 -0.92613080277E+02  0.30832076583E+03  0.32547936826E+03  0.47000000000E+01 0. -1.
         -5    1    3    3    0  502 -0.25460978427E+02  0.61820139227E+02  0.14248612356E+03  0.15746230166E+03  0.47000000000E+01 0.  1.
<mgrwt>
<rscale>  0 0.16941366E+03</rscale>
<asrwt>0</asrwt>
<pdfrwt beam="1">  1        1 0.10583383E+00 0.17614970E+03</pdfrwt>
<pdfrwt beam="2">  1       -1 0.60107041E-02 0.17614970E+03</pdfrwt>
<totfact> 0.37906323E+03</totfact>
</mgrwt>
</event>
<event>
 8    1  0.3551276E-004  0.1927614E+03  0.7546771E-02  0.1160693E+00
          1   -1    0    0  501    0  0.00000000000E+00  0.00000000000E+00  0.80525308893E+03  0.80525308893E+03  0.00000000000E+00 0. -1.
         -1   -1    0    0    0  501 -0.00000000000E+00 -0.00000000000E+00 -0.42868069664E+02  0.42868069664E+02  0.00000000000E+00 0.  1.
         25    2    1    2    0    0 -0.13913112883E+03 -0.46618025480E+02  0.47779243296E+03  0.51521117246E+03  0.12500492757E+03 0.  0.
         23    2    1    2    0    0  0.13913112883E+03  0.46618025480E+02  0.28459258630E+03  0.33290998613E+03  0.91134007822E+02 0.  0.
          5    1    3    3  502    0 -0.68043304577E+02 -0.34637510154E+02  0.40678012041E+03  0.41391038253E+03  0.47000000000E+01 0.  1.
         -5    1    3    3    0  502 -0.71087824256E+02 -0.11980515326E+02  0.71012312553E+02  0.10130078992E+03  0.47000000000E+01 0.  1.
          5    1    4    4  503    0  0.16304633958E+02 -0.14283854653E+02  0.10281827606E+03  0.10518344681E+03  0.47000000000E+01 0. -1.
         -5    1    4    4    0  503  0.12282649488E+03  0.60901880133E+02  0.18177431024E+03  0.22772653932E+03  0.47000000000E+01 0.  1.
<mgrwt>
<rscale>  0 0.18754599E+03</rscale>
<asrwt>0</asrwt>
<pdfrwt beam="1">  1        1 0.12388508E+00 0.19276136E+03</pdfrwt>
<pdfrwt beam="2">  1       -1 0.65950882E-02 0.19276136E+03</pdfrwt>
<totfact> 0.26181369E+03</totfact>
</mgrwt>
</event>
<event>
 8    1  0.3551276E-004  0.1566548E+03  0.7546771E-02  0.1200998E+00
          2   -1    0    0  501    0  0.00000000000E+00  0.00000000000E+00  0.59875095102E+03  0.59875095102E+03  0.00000000000E+00 0. -1.
         -2   -1    0    0    0  501 -0.00000000000E+00 -0.00000000000E+00 -0.35098177359E+02  0.35098177359E+02  0.00000000000E+00 0.  1.
         25    2    1    2    0    0 -0.91563059288E+02 -0.23033651517E+02  0.35318019613E+03  0.38636378438E+03  0.12500551991E+03 0.  0.
         23    2    1    2    0    0  0.91563059288E+02  0.23033651517E+02  0.21047257753E+03  0.24748534400E+03  0.89643441904E+02 0.  0.
          5    1    3    3  502    0 -0.63356758674E+02 -0.74415074489E+02  0.22231939942E+03  0.24289851284E+03  0.47000000000E+01 0. -1.
         -5    1    4    4    0  503  0.55572795890E+02  0.55138614121E+02  0.15582360898E+03  0.17444681001E+03  0.47000000000E+01 0.  1.
          5    1    4    4  503    0  0.35990263398E+02 -0.32104962604E+02  0.54648968551E+02  0.73038533986E+02  0.47000000000E+01 0. -1.
         -5    1    3    3    0  502 -0.28206300614E+02  0.51381422972E+02  0.13086079671E+03  0.14346527154E+03  0.47000000000E+01 0. -1.
<mgrwt>
<rscale>  0 0.14957358E+03</rscale>
<asrwt>0</asrwt>
<pdfrwt beam="1">  1        2 0.92115523E-01 0.15665479E+03</pdfrwt>
<pdfrwt beam="2">  1       -2 0.53997200E-02 0.15665479E+03</pdfrwt>
<totfact> 0.85060235E+03</totfact>
</mgrwt>
</event>
<event>
 8    1  0.3551276E-004  0.1344785E+03  0.7546771E-02  0.1232892E+00
          1   -1    0    0  501    0  0.00000000000E+00  0.00000000000E+00  0.62601700742E+03  0.62601700742E+03  0.00000000000E+00 0. -1.
         -1   -1    0    0    0  501 -0.00000000000E+00 -0.00000000000E+00 -0.28374405693E+02  0.28374405693E+02  0.00000000000E+00 0.  1.
         25    2    1    2    0    0 -0.21434028561E+02 -0.44722113582E+02  0.47140044082E+03  0.49020694304E+03  0.12499994552E+03 0.  0.
         23    2    1    2    0    0  0.21434028561E+02  0.44722113582E+02  0.12624216091E+03  0.16418447007E+03  0.92520116721E+02 0.  0.
          5    1    3    3  502    0  0.19591506829E+02 -0.62117252631E+02  0.40417717006E+03  0.40941867936E+03  0.47000000000E+01 0. -1.
         -5    1    3    3    0  502 -0.41025535391E+02  0.17395139049E+02  0.67223270757E+02  0.80788263677E+02  0.47000000000E+01 0. -1.
          5    1    4    4  503    0 -0.30892790119E+02 -0.59921598055E+01  0.42199145822E+02  0.52850055521E+02  0.47000000000E+01 0. -1.
         -5    1    4    4    0  503  0.52326818680E+02  0.50714273387E+02  0.84043015088E+02  0.11133441455E+03  0.47000000000E+01 0.  1.
<mgrwt>
<rscale>  0 0.12640368E+03</rscale>
<asrwt>0</asrwt>
<pdfrwt beam="1">  1        1 0.96310299E-01 0.13447852E+03</pdfrwt>
<pdfrwt beam="2">  1       -1 0.43652936E-02 0.13447852E+03</pdfrwt>
<totfact> 0.68746673E+03</totfact>
</mgrwt>
</event>
<event>
 8    1  0.3551276E-004  0.1709354E+03  0.7546771E-02  0.1183535E+00
          1   -1    0    0  501    0  0.00000000000E+00  0.00000000000E+00  0.32533047301E+03  0.32533047301E+03  0.00000000000E+00 0. -1.
         -1   -1    0    0    0  501 -0.00000000000E+00 -0.00000000000E+00 -0.77935647904E+02  0.77935647904E+02  0.00000000000E+00 0.  1.
         25    2    1    2    0    0 -0.93159769273E+02  0.70105997679E+02  0.12347884399E+03  0.21086947771E+03  0.12500127276E+03 0.  0.
         23    2    1    2    0    0  0.93159769273E+02 -0.70105997679E+02  0.12391598112E+03  0.19239664321E+03  0.89820400919E+02 0.  0.
          5    1    3    3  502    0 -0.14853486285E+02  0.68993624639E+02  0.78894010650E+01  0.71169368023E+02  0.47000000000E+01 0.  1.
         -5    1    4    4    0  503  0.41029024112E+02  0.17600917851E+02  0.33910668194E+02  0.56260079507E+02  0.47000000000E+01 0.  1.
          5    1    4    4  503    0  0.52130745161E+02 -0.87706915530E+02  0.90005312924E+02  0.13613656370E+03  0.47000000000E+01 0. -1.
         -5    1    3    3    0  502 -0.78306282988E+02  0.11123730408E+01  0.11558944293E+03  0.13970010968E+03  0.47000000000E+01 0.  1.
<mgrwt>
<rscale>  0 0.16465866E+03</rscale>
<asrwt>0</asrwt>
<pdfrwt beam="1">  1        1 0.50050841E-01 0.17093540E+03</pdfrwt>
<pdfrwt beam="2">  1       -1 0.11990100E-01 0.17093540E+03</pdfrwt>
<totfact> 0.35410419E+03</totfact>
</mgrwt>
</event>
<event>
 8    1  0.3551276E-004  0.1322498E+03  0.7546771E-02  0.1239027E+00
         -1   -1    0    0    0  501 -0.00000000000E+00  0.00000000000E+00  0.24532936085E+02  0.24532936085E+02  0.00000000000E+00 0.  1.
          1   -1    0    0  501    0  0.00000000000E+00 -0.00000000000E+00 -0.62853885576E+03  0.62853885576E+03  0.00000000000E+00 0. -1.
         25    2    1    2    0    0  0.40260056476E+01  0.43001161316E+02 -0.21800991908E+03  0.25498693511E+03  0.12499881465E+03 0.  0.
         23    2    1    2    0    0 -0.40260056476E+01 -0.43001161316E+02 -0.38599600060E+03  0.39808485674E+03  0.87254410160E+02 0.  0.
          5    1    4    4  502    0  0.26664226431E+02 -0.51838024074E+00 -0.26186825281E+03  0.26326473657E+03  0.47000000000E+01 0. -1.
         -5    1    4    4    0  502 -0.30690232079E+02 -0.42482781075E+02 -0.12412774778E+03  0.13482012017E+03  0.47000000000E+01 0.  1.
          5    1    3    3  503    0  0.56263219522E+02  0.53084369185E+02 -0.14649231275E+03  0.16572745041E+03  0.47000000000E+01 0. -1.
         -5    1    3    3    0  503 -0.52237213875E+02 -0.10083207870E+02 -0.71517606329E+02  0.89259484703E+02  0.47000000000E+01 0. -1.
<mgrwt>
<rscale>  0 0.12250098E+03</rscale>
<asrwt>0</asrwt>
<pdfrwt beam="1">  1        1 0.96698287E-01 0.13224981E+03</pdfrwt>
<pdfrwt beam="2">  1       -1 0.37742978E-02 0.13224981E+03</pdfrwt>
<totfact> 0.84561785E+03</totfact>
</mgrwt>
</event>
<event>
 8    1  0.3551276E-004  0.2023699E+03  0.7546771E-02  0.1152346E+00
         -2   -1    0    0    0  501 -0.00000000000E+00  0.00000000000E+00  0.63901563582E+03  0.63901563582E+03  0.00000000000E+00 0.  1.
          2   -1    0    0  501    0  0.00000000000E+00 -0.00000000000E+00 -0.57873420343E+02  0.57873420343E+02  0.00000000000E+00 0. -1.
         25    2    1    2    0    0  0.15728330392E+03 -0.24265004138E+02  0.32778648327E+03  0.38522404854E+03  0.12500704318E+03 0.  0.
         23    2    1    2    0    0 -0.15728330392E+03  0.24265004138E+02  0.25335573221E+03  0.31166500762E+03  0.87287581094E+02 0.  0.
          5    1    4    4  502    0 -0.79015834192E+02 -0.20596891996E+02  0.17042424915E+03  0.18903504626E+03  0.47000000000E+01 0.  1.
         -5    1    3    3    0  503  0.11318420347E+02 -0.35227773757E+02  0.15670471969E+02  0.40456845833E+02  0.47000000000E+01 0. -1.
          5    1    3    3  503    0  0.14596488357E+03  0.10962769620E+02  0.31211601130E+03  0.34476720271E+03  0.47000000000E+01 0. -1.
         -5    1    4    4    0  502 -0.78267469729E+02  0.44861896133E+02  0.82931483052E+02  0.12262996136E+03  0.47000000000E+01 0. -1.
<mgrwt>
<rscale>  0 0.19694037E+03</rscale>
<asrwt>0</asrwt>
<pdfrwt beam="1">  1        2 0.89036036E-02 0.20236993E+03</pdfrwt>
<pdfrwt beam="2">  1       -2 0.98310093E-01 0.20236993E+03</pdfrwt>
<totfact> 0.65719851E+02</totfact>
</mgrwt>
</event>
<event>
 8    1  0.3551276E-004  0.1400242E+03  0.7546771E-02  0.1227441E+00
         -2   -1    0    0    0  501 -0.00000000000E+00  0.00000000000E+00  0.50944671955E+02  0.50944671955E+02  0.00000000000E+00 0.  1.
          2   -1    0    0  501    0  0.00000000000E+00 -0.00000000000E+00 -0.29829622836E+03  0.29829622836E+03  0.00000000000E+00 0. -1.
         25    2    1    2    0    0  0.49317995881E+02 -0.39365683878E+02 -0.11718037707E+03  0.18258700518E+03  0.12499940762E+03 0.  0.
         23    2    1    2    0    0 -0.49317995881E+02  0.39365683878E+02 -0.13017117933E+03  0.16665389513E+03  0.82746982121E+02 0.  0.
          5    1    3    3  502    0  0.31882552581E+02  0.22351112807E+02  0.96476467584E+01  0.40388568813E+02  0.47000000000E+01 0. -1.
         -5    1    3    3    0  502  0.17435443300E+02 -0.61716796685E+02 -0.12682802383E+03  0.14219843636E+03  0.47000000000E+01 0. -1.
          5    1    4    4  503    0 -0.52439131445E+02  0.19256837276E+02 -0.13415032913E+03  0.14539287841E+03  0.47000000000E+01 0. -1.
         -5    1    4    4    0  503  0.31211355642E+01  0.20108846601E+02  0.39791497966E+01  0.21261016720E+02  0.47000000000E+01 0.  1.
<mgrwt>
<rscale>  0 0.13000970E+03</rscale>
<asrwt>0</asrwt>
<pdfrwt beam="1">  1        2 0.45891726E-01 0.14002419E+03</pdfrwt>
<pdfrwt beam="2">  1       -2 0.78376420E-02 0.14002419E+03</pdfrwt>
<totfact> 0.10184908E+04</totfact>
</mgrwt>
</event>
<event>
 8    1  0.3551276E-004  0.1906002E+03  0.7546771E-02  0.1162622E+00
          1   -1    0    0  501    0  0.00000000000E+00  0.00000000000E+00  0.10496072299E+04  0.10496072299E+04  0.00000000000E+00 0. -1.
         -1   -1    0    0    0  501 -0.00000000000E+00 -0.00000000000E+00 -0.32665020596E+02  0.32665020596E+02  0.00000000000E+00 0.  1.
         25    2    1    2    0    0 -0.55028583105E+01 -0.14377276528E+03  0.65251076875E+03  0.67977843761E+03  0.12501012523E+03 0.  0.
         23    2    1    2    0    0  0.55028583105E+01  0.14377276528E+03  0.36443144060E+03  0.40249381294E+03  0.92141766153E+02 0.  0.
          5    1    4    4  502    0 -0.34831996490E+02  0.90945592443E+02  0.15887078315E+03  0.18640382105E+03  0.47000000000E+01 0. -1.
         -5    1    3    3    0  503  0.28915430829E+02 -0.14280083186E+03  0.59488260536E+03  0.61248312946E+03  0.47000000000E+01 0.  1.
          5    1    3    3  503    0 -0.34418289140E+02 -0.97193342166E+00  0.57628163394E+02  0.67295308143E+02  0.47000000000E+01 0.  1.
         -5    1    4    4    0  502  0.40334854800E+02  0.52827172835E+02  0.20556065745E+03  0.21608999189E+03  0.47000000000E+01 0.  1.
<mgrwt>
<rscale>  0 0.18545927E+03</rscale>
<asrwt>0</asrwt>
<pdfrwt beam="1">  1        1 0.16147801E+00 0.19060016E+03</pdfrwt>
<pdfrwt beam="2">  1       -1 0.50253886E-02 0.19060016E+03</pdfrwt>
<totfact> 0.25514532E+03</totfact>
</mgrwt>
</event>
<event>
 8    1  0.3551276E-004  0.1375961E+03  0.7546771E-02  0.1227855E+00
         -3   -1    0    0    0  501 -0.00000000000E+00  0.00000000000E+00  0.14102317965E+03  0.14102317965E+03  0.00000000000E+00 0.  1.
          3   -1    0    0  501    0  0.00000000000E+00 -0.00000000000E+00 -0.11336206686E+03  0.11336206686E+03  0.00000000000E+00 0. -1.
         25    2    1    2    0    0 -0.50262522307E+02 -0.27962664527E+02  0.43935205083E+02  0.14444026980E+03  0.12499783013E+03 0.  0.
         23    2    1    2    0    0  0.50262522307E+02  0.27962664527E+02 -0.16274092290E+02  0.10994497671E+03  0.92275782670E+02 0.  0.
          5    1    4    4  502    0  0.67769364969E+02  0.45525402913E+02 -0.20615982896E+02  0.84334796433E+02  0.47000000000E+01 0. -1.
         -5    1    3    3    0  503  0.16078125865E+02 -0.43603735322E+02 -0.20052980244E+02  0.50833098293E+02  0.47000000000E+01 0.  1.
          5    1    3    3  503    0 -0.66340648172E+02  0.15641070795E+02  0.63988185328E+02  0.93607171504E+02  0.47000000000E+01 0.  1.
         -5    1    4    4    0  502 -0.17506842663E+02 -0.17562738386E+02  0.43418906058E+01  0.25610180274E+02  0.47000000000E+01 0.  1.
<mgrwt>
<rscale>  0 0.12973161E+03</rscale>
<asrwt>0</asrwt>
<pdfrwt beam="1">  1        3 0.17440318E-01 0.13759611E+03</pdfrwt>
<pdfrwt beam="2">  1       -3 0.21695874E-01 0.13759611E+03</pdfrwt>
<totfact> 0.12787205E+03</totfact>
</mgrwt>
</event>
<event>
 8    1  0.3551276E-004  0.1285129E+03  0.7546771E-02  0.1244229E+00
          2   -1    0    0  501    0  0.00000000000E+00  0.00000000000E+00  0.23871881331E+02  0.23871881331E+02  0.00000000000E+00 0. -1.
         -2   -1    0    0    0  501 -0.00000000000E+00 -0.00000000000E+00 -0.53257396158E+03  0.53257396158E+03  0.00000000000E+00 0.  1.
         25    2    1    2    0    0  0.46426424790E+01 -0.29478410896E+02 -0.32309813999E+03  0.34771822584E+03  0.12500010271E+03 0.  0.
         23    2    1    2    0    0 -0.46426424790E+01  0.29478410896E+02 -0.18560394026E+03  0.20872761707E+03  0.90707577688E+02 0.  0.
          5    1    4    4  502    0  0.34449967194E+02  0.20821379215E+02 -0.37429945124E+02  0.55167208232E+02  0.47000000000E+01 0. -1.
         -5    1    3    3    0  503 -0.26523769874E+02 -0.71229513821E+02 -0.18685388650E+03  0.20177616040E+03  0.47000000000E+01 0.  1.
          5    1    3    3  503    0  0.31166412353E+02  0.41751102925E+02 -0.13624425349E+03  0.14594206544E+03  0.47000000000E+01 0.  1.
         -5    1    4    4    0  502 -0.39092609673E+02  0.86570316809E+01 -0.14817399513E+03  0.15356040884E+03  0.47000000000E+01 0.  1.
<mgrwt>
<rscale>  0 0.11931629E+03</rscale>
<asrwt>0</asrwt>
<pdfrwt beam="1">  1        2 0.36725972E-02 0.12851287E+03</pdfrwt>
<pdfrwt beam="2">  1       -2 0.81934454E-01 0.12851287E+03</pdfrwt>
<totfact> 0.30523340E+03</totfact>
</mgrwt>
</event>
<event>
 8    1  0.3551276E-004  0.1559387E+03  0.7546771E-02  0.1201568E+00
         -2   -1    0    0    0  501 -0.00000000000E+00  0.00000000000E+00  0.13154259690E+03  0.13154259690E+03  0.00000000000E+00 0.  1.
          2   -1    0    0  501    0  0.00000000000E+00 -0.00000000000E+00 -0.16099650456E+03  0.16099650456E+03  0.00000000000E+00 0. -1.
         25    2    1    2    0    0  0.11958316411E+02 -0.92459093131E+02  0.10183804003E+02  0.15627088313E+03  0.12500077527E+03 0.  0.
         23    2    1    2    0    0 -0.11958316411E+02  0.92459093131E+02 -0.39637711657E+02  0.13626821833E+03  0.91138322928E+02 0.  0.
          5    1    3    3  502    0  0.24599830836E+02 -0.12125669695E+03  0.12149820984E+02  0.12441079689E+03  0.47000000000E+01 0. -1.
         -5    1    3    3    0  502 -0.12641514425E+02  0.28797603821E+02 -0.19660169813E+01  0.31860086245E+02  0.47000000000E+01 0. -1.
          5    1    4    4  503    0  0.18158043962E+02  0.66241693855E+02 -0.59890397959E+02  0.91250349769E+02  0.47000000000E+01 0. -1.
         -5    1    4    4    0  503 -0.30116360373E+02  0.26217399276E+02  0.20252686302E+02  0.45017868556E+02  0.47000000000E+01 0.  1.
<mgrwt>
<rscale>  0 0.14911275E+03</rscale>
<asrwt>0</asrwt>
<pdfrwt beam="1">  1        2 0.24768693E-01 0.15593870E+03</pdfrwt>
<pdfrwt beam="2">  1       -2 0.20237323E-01 0.15593870E+03</pdfrwt>
<totfact> 0.43232828E+03</totfact>
</mgrwt>
</event>
<event>
 8    1  0.3551276E-004  0.2243582E+03  0.7546771E-02  0.1134006E+00
          2   -1    0    0  501    0  0.00000000000E+00  0.00000000000E+00  0.12413299016E+04  0.12413299016E+04  0.00000000000E+00 0.  1.
         -2   -1    0    0    0  501 -0.00000000000E+00 -0.00000000000E+00 -0.40939670959E+02  0.40939670959E+02  0.00000000000E+00 0. -1.
         25    2    1    2    0    0  0.10932384170E+03 -0.15086118245E+03  0.80984460889E+03  0.84034808225E+03  0.12500324021E+03 0.  0.
         23    2    1    2    0    0 -0.10932384170E+03  0.15086118245E+03  0.39054562175E+03  0.44192149030E+03  0.89765930016E+02 0.  0.
          5    1    3    3  502    0  0.21606450703E+02  0.15206791733E+02  0.21168429583E+03  0.21337857514E+03  0.47000000000E+01 0.  1.
         -5    1    4    4    0  503 -0.43957863758E+02  0.64448412518E+02  0.75239079559E+02  0.10848456459E+03  0.47000000000E+01 0.  1.
          5    1    4    4  503    0 -0.65365977942E+02  0.86412769930E+02  0.31530654219E+03  0.33343692571E+03  0.47000000000E+01 0. -1.
         -5    1    3    3    0  502  0.87717390997E+02 -0.16606797418E+03  0.59816031305E+03  0.62696950711E+03  0.47000000000E+01 0.  1.
<mgrwt>
<rscale>  0 0.21983522E+03</rscale>
<asrwt>0</asrwt>
<pdfrwt beam="1">  1        2 0.19097380E+00 0.22435822E+03</pdfrwt>
<pdfrwt beam="2">  1       -2 0.62984118E-02 0.22435822E+03</pdfrwt>
<totfact> 0.25944918E+03</totfact>
</mgrwt>
</event>
<event>
 8    1  0.3551276E-004  0.1320020E+03  0.7546771E-02  0.1237365E+00
         -2   -1    0    0    0  501 -0.00000000000E+00  0.00000000000E+00  0.34422856033E+03  0.34422856033E+03  0.00000000000E+00 0.  1.
          2   -1    0    0  501    0  0.00000000000E+00 -0.00000000000E+00 -0.41100474857E+02  0.41100474857E+02  0.00000000000E+00 0. -1.
         25    2    1    2    0    0  0.16835307186E+01 -0.42391101073E+02  0.20818674586E+03  0.24650811427E+03  0.12499875810E+03 0.  0.
         23    2    1    2    0    0 -0.16835307186E+01  0.42391101073E+02  0.94941339619E+02  0.13882092092E+03  0.91964941091E+02 0.  0.
          5    1    3    3  502    0  0.20868627826E+02  0.26941051460E+01 -0.93293523929E+01  0.23492225224E+02  0.47000000000E+01 0.  1.
         -5    1    3    3    0  502 -0.19185097107E+02 -0.45085206219E+02  0.21751609825E+03  0.22301588905E+03  0.47000000000E+01 0.  1.
          5    1    4    4  503    0 -0.17165146667E+02  0.20917131318E+02 -0.10952435372E+02  0.29567118278E+02  0.47000000000E+01 0. -1.
         -5    1    4    4    0  503  0.15481615949E+02  0.21473969755E+02  0.10589377499E+03  0.10925380264E+03  0.47000000000E+01 0.  1.
<mgrwt>
<rscale>  0 0.12354211E+03</rscale>
<asrwt>0</asrwt>
<pdfrwt beam="1">  1        2 0.63231502E-02 0.13200200E+03</pdfrwt>
<pdfrwt beam="2">  1       -2 0.52958238E-01 0.13200200E+03</pdfrwt>
<totfact> 0.37536977E+03</totfact>
</mgrwt>
</event>
<event>
 8    1  0.3551276E-004  0.1322904E+03  0.7546771E-02  0.1236982E+00
          1   -1    0    0  501    0  0.00000000000E+00  0.00000000000E+00  0.14958264009E+02  0.14958264009E+02  0.00000000000E+00 0. -1.
         -1   -1    0    0    0  501 -0.00000000000E+00 -0.00000000000E+00 -0.11325475082E+04  0.11325475082E+04  0.00000000000E+00 0.  1.
         25    2    1    2    0    0  0.22353754135E+02 -0.37098661537E+02 -0.86926501395E+03  0.87927379660E+03  0.12499897556E+03 0.  0.
         23    2    1    2    0    0 -0.22353754135E+02  0.37098661537E+02 -0.24832423027E+03  0.26823197565E+03  0.91692248345E+02 0.  0.
          5    1    4    4  502    0 -0.39965100465E+02  0.52257804489E+02 -0.11294654809E+03  0.13079411344E+03  0.47000000000E+01 0. -1.
         -5    1    4    4    0  502  0.17611346330E+02 -0.15159142952E+02 -0.13537768218E+03  0.13743786220E+03  0.47000000000E+01 0.  1.
          5    1    3    3  503    0 -0.17645483365E+02  0.40285613581E+02 -0.24794003226E+03  0.25185440902E+03  0.47000000000E+01 0. -1.
         -5    1    3    3    0  503  0.39999237500E+02 -0.77384275117E+02 -0.62132498169E+03  0.62741938758E+03  0.47000000000E+01 0. -1.
<mgrwt>
<rscale>  0 0.12378376E+03</rscale>
<asrwt>0</asrwt>
<pdfrwt beam="1">  1        1 0.23012712E-02 0.13229038E+03</pdfrwt>
<pdfrwt beam="2">  1       -1 0.17423809E+00 0.13229038E+03</pdfrwt>
<totfact> 0.12160671E+03</totfact>
</mgrwt>
</event>
<event>
 8    1  0.3551276E-004  0.1513218E+03  0.7546771E-02  0.1208666E+00
         -1   -1    0    0    0  501 -0.00000000000E+00  0.00000000000E+00  0.11857240548E+03  0.11857240548E+03  0.00000000000E+00 0.  1.
          1   -1    0    0  501    0  0.00000000000E+00 -0.00000000000E+00 -0.15850781524E+03  0.15850781524E+03  0.00000000000E+00 0. -1.
         25    2    1    2    0    0 -0.23742801040E+02  0.81911823827E+02 -0.29587400267E+02  0.15418721177E+03  0.12500005814E+03 0.  0.
         23    2    1    2    0    0  0.23742801040E+02 -0.81911823827E+02 -0.10348009491E+02  0.12289300895E+03  0.87876861938E+02 0.  0.
          5    1    3    3  502    0  0.42157125802E+02 -0.43597008178E+01 -0.93776145702E+01  0.43660736390E+02  0.47000000000E+01 0. -1.
         -5    1    4    4    0  503  0.19645167671E+02 -0.43323820836E+02  0.37753176668E+02  0.60912054745E+02  0.47000000000E+01 0.  1.
          5    1    4    4  503    0  0.40976333688E+01 -0.38588002990E+02 -0.48101186159E+02  0.61980954203E+02  0.47000000000E+01 0. -1.
         -5    1    3    3    0  502 -0.65899926842E+02  0.86271524644E+02 -0.20209785697E+02  0.11052647538E+03  0.47000000000E+01 0. -1.
<mgrwt>
<rscale>  0 0.14352303E+03</rscale>
<asrwt>0</asrwt>
<pdfrwt beam="1">  1        1 0.24385818E-01 0.15132178E+03</pdfrwt>
<pdfrwt beam="2">  1       -1 0.18241909E-01 0.15132178E+03</pdfrwt>
<totfact> 0.44630544E+03</totfact>
</mgrwt>
</event>
<event>
 8    1  0.3551276E-004  0.1964715E+03  0.7546771E-02  0.1157213E+00
          1   -1    0    0  501    0  0.00000000000E+00  0.00000000000E+00  0.73905921018E+03  0.73905921018E+03  0.00000000000E+00 0. -1.
         -1   -1    0    0    0  501 -0.00000000000E+00 -0.00000000000E+00 -0.57043311143E+02  0.57043311143E+02  0.00000000000E+00 0.  1.
         25    2    1    2    0    0 -0.38408829157E+02 -0.14663253089E+03  0.19029282550E+03  0.27351859179E+03  0.12499889338E+03 0.  0.
         23    2    1    2    0    0  0.38408829157E+02  0.14663253089E+03  0.49172307354E+03  0.52258392953E+03  0.91247164773E+02 0.  0.
          5    1    4    4  502    0 -0.11585062374E+02  0.10452523579E+03  0.36557155733E+03  0.38042659229E+03  0.47000000000E+01 0. -1.
         -5    1    3    3    0  503 -0.92447062949E+01  0.21642238969E+02  0.12958771607E+02  0.27273996107E+02  0.47000000000E+01 0.  1.
          5    1    3    3  503    0 -0.29164122862E+02 -0.16827476986E+03  0.17733405389E+03  0.24624459569E+03  0.47000000000E+01 0.  1.
         -5    1    4    4    0  502  0.49993891531E+02  0.42107295102E+02  0.12615151621E+03  0.14215733724E+03  0.47000000000E+01 0.  1.
<mgrwt>
<rscale>  0 0.19139117E+03</rscale>
<asrwt>0</asrwt>
<pdfrwt beam="1">  1        1 0.11370141E+00 0.19647153E+03</pdfrwt>
<pdfrwt beam="2">  1       -1 0.87758946E-02 0.19647153E+03</pdfrwt>
<totfact> 0.19308493E+03</totfact>
</mgrwt>
</event>
<event>
 8    1  0.3551276E-004  0.3792696E+03  0.7546771E-02  0.1052108E+00
         -2   -1    0    0    0  501 -0.00000000000E+00  0.00000000000E+00  0.34082048033E+03  0.34082048033E+03  0.00000000000E+00 0.  1.
          2   -1    0    0  501    0  0.00000000000E+00 -0.00000000000E+00 -0.50516524731E+03  0.50516524731E+03  0.00000000000E+00 0. -1.
         25    2    1    2    0    0  0.17699015121E+03 -0.31127818737E+03  0.99178510166E+02  0.39202267618E+03  0.12500311277E+03 0.  0.
         23    2    1    2    0    0 -0.17699015121E+03  0.31127818737E+03 -0.26352327714E+03  0.45396305146E+03  0.91751353900E+02 0.  0.
          5    1    4    4  502    0 -0.50225739571E+02  0.11074623351E+03 -0.14316574889E+03  0.18789857585E+03  0.47000000000E+01 0. -1.
         -5    1    3    3    0  503  0.16763214814E+02 -0.13971377334E+03  0.11031017242E+02  0.14122576667E+03  0.47000000000E+01 0.  1.
          5    1    3    3  503    0  0.16022693639E+03 -0.17156441403E+03  0.88147492924E+02  0.25079690950E+03  0.47000000000E+01 0.  1.
         -5    1    4    4    0  502 -0.12676441164E+03  0.20053195386E+03 -0.12035752826E+03  0.26606447561E+03  0.47000000000E+01 0.  1.
<mgrwt>
<rscale>  0 0.37684036E+03</rscale>
<asrwt>0</asrwt>
<pdfrwt beam="1">  1        2 0.77717730E-01 0.37926956E+03</pdfrwt>
<pdfrwt beam="2">  1       -2 0.52433920E-01 0.37926956E+03</pdfrwt>
<totfact> 0.21481788E+02</totfact>
</mgrwt>
</event>
<event>
 8    1  0.3551276E-004  0.2138795E+03  0.7546771E-02  0.1142082E+00
          1   -1    0    0  501    0  0.00000000000E+00  0.00000000000E+00  0.36961551356E+03  0.36961551356E+03  0.00000000000E+00 0. -1.
         -1   -1    0    0    0  501 -0.00000000000E+00 -0.00000000000E+00 -0.13518954605E+03  0.13518954605E+03  0.00000000000E+00 0.  1.
         25    2    1    2    0    0  0.11034254183E+03  0.13392663109E+03  0.22172476582E+03  0.30806868320E+03  0.12503048724E+03 0.  0.
         23    2    1    2    0    0 -0.11034254183E+03 -0.13392663109E+03  0.12701201690E+02  0.19673637642E+03  0.91826261109E+02 0.  0.
          5    1    3    3  502    0  0.13527171954E+02  0.17153649220E+02  0.12748458222E+03  0.12942812973E+03  0.47000000000E+01 0.  1.
         -5    1    4    4    0  503 -0.53241148219E+02 -0.55416240524E+02 -0.39369760152E+02  0.86473392393E+02  0.47000000000E+01 0.  1.
          5    1    4    4  503    0 -0.57101393608E+02 -0.78510390566E+02  0.52070961842E+02  0.11026298402E+03  0.47000000000E+01 0. -1.
         -5    1    3    3    0  502  0.96815369872E+02  0.11677298187E+03  0.94240183596E+02  0.17864055347E+03  0.47000000000E+01 0.  1.
<mgrwt>
<rscale>  0 0.20934920E+03</rscale>
<asrwt>0</asrwt>
<pdfrwt beam="1">  1        1 0.56863925E-01 0.21387950E+03</pdfrwt>
<pdfrwt beam="2">  1       -1 0.20798392E-01 0.21387950E+03</pdfrwt>
<totfact> 0.12652377E+03</totfact>
</mgrwt>
</event>
<event>
 8    1  0.3551276E-004  0.1375798E+03  0.7546771E-02  0.1227315E+00
         -2   -1    0    0    0  501 -0.00000000000E+00  0.00000000000E+00  0.26033719819E+03  0.26033719819E+03  0.00000000000E+00 0.  1.
          2   -1    0    0  501    0  0.00000000000E+00 -0.00000000000E+00 -0.59367605462E+02  0.59367605462E+02  0.00000000000E+00 0. -1.
         25    2    1    2    0    0  0.43287238669E+02 -0.37795851705E+02  0.12627932840E+03  0.18674761347E+03  0.12500356363E+03 0.  0.
         23    2    1    2    0    0 -0.43287238669E+02  0.37795851705E+02  0.74690264334E+02  0.13295719018E+03  0.93790550683E+02 0.  0.
          5    1    3    3  502    0  0.71556605096E+02 -0.35324306388E+02  0.28567695240E+02  0.84890267793E+02  0.47000000000E+01 0. -1.
         -5    1    4    4    0  503 -0.72170711973E+02  0.17879468932E+02  0.53213918310E+02  0.91553799363E+02  0.47000000000E+01 0.  1.
          5    1    4    4  503    0  0.28883473304E+02  0.19916382772E+02  0.21476346023E+02  0.41403390819E+02  0.47000000000E+01 0. -1.
         -5    1    3    3    0  502 -0.28269366427E+02 -0.24715453166E+01  0.97711633157E+02  0.10185734568E+03  0.47000000000E+01 0. -1.
<mgrwt>
<rscale>  0 0.13009470E+03</rscale>
<asrwt>0</asrwt>
<pdfrwt beam="1">  1        2 0.91334779E-02 0.13757980E+03</pdfrwt>
<pdfrwt beam="2">  1       -2 0.40051876E-01 0.13757980E+03</pdfrwt>
<totfact> 0.40767847E+03</totfact>
</mgrwt>
</event>
<event>
 8    1  0.3551276E-004  0.1664243E+03  0.7546771E-02  0.1188782E+00
          2   -1    0    0  501    0  0.00000000000E+00  0.00000000000E+00  0.40257864167E+03  0.40257864167E+03  0.00000000000E+00 0. -1.
         -2   -1    0    0    0  501 -0.00000000000E+00 -0.00000000000E+00 -0.60055234110E+02  0.60055234110E+02  0.00000000000E+00 0.  1.
         25    2    1    2    0    0  0.99764163489E+02  0.46030856656E+02  0.15462593978E+03  0.22717005864E+03  0.12500130484E+03 0.  0.
         23    2    1    2    0    0 -0.99764163489E+02 -0.46030856656E+02  0.18789746779E+03  0.23546381714E+03  0.89811038857E+02 0.  0.
          5    1    4    4  502    0 -0.28774429823E+02 -0.59059238113E+02  0.11651728794E+03  0.13384442389E+03  0.47000000000E+01 0. -1.
         -5    1    4    4    0  502 -0.70989733666E+02  0.13028381457E+02  0.71380179850E+02  0.10161939325E+03  0.47000000000E+01 0.  1.
          5    1    3    3  503    0  0.76622747404E+02 -0.51737528263E+01  0.15242089717E+03  0.17073966450E+03  0.47000000000E+01 0. -1.
         -5    1    3    3    0  503  0.23141416084E+02  0.51204609482E+02  0.22050426052E+01  0.56430394146E+02  0.47000000000E+01 0. -1.
<mgrwt>
<rscale>  0 0.15992412E+03</rscale>
<asrwt>0</asrwt>
<pdfrwt beam="1">  1        2 0.61935174E-01 0.16642432E+03</pdfrwt>
<pdfrwt beam="2">  1       -2 0.92392670E-02 0.16642432E+03</pdfrwt>
<totfact> 0.57899502E+03</totfact>
</mgrwt>
</event>
<event>
 8    1  0.3551276E-004  0.1596410E+03  0.7546771E-02  0.1196938E+00
         -2   -1    0    0    0  501 -0.00000000000E+00  0.00000000000E+00  0.51794506939E+02  0.51794506939E+02  0.00000000000E+00 0.  1.
          2   -1    0    0  501    0  0.00000000000E+00 -0.00000000000E+00 -0.46638983075E+03  0.46638983075E+03  0.00000000000E+00 0. -1.
         25    2    1    2    0    0 -0.90361512629E+02  0.41172414181E+02 -0.30703011569E+03  0.34605309155E+03  0.12499951829E+03 0.  0.
         23    2    1    2    0    0  0.90361512629E+02 -0.41172414181E+02 -0.10756520812E+03  0.17213124614E+03  0.90545685962E+02 0.  0.
          5    1    4    4  502    0  0.17488553959E+02 -0.46684302609E+02 -0.78984441996E+02  0.93519547192E+02  0.47000000000E+01 0. -1.
         -5    1    3    3    0  503  0.22029597602E+02  0.40010618266E+02 -0.10946791215E+03  0.11870748307E+03  0.47000000000E+01 0. -1.
          5    1    3    3  503    0 -0.11239111023E+03  0.11617959158E+01 -0.19756220354E+03  0.22734560848E+03  0.47000000000E+01 0. -1.
         -5    1    4    4    0  502  0.72872958670E+02  0.55118884279E+01 -0.28580766120E+02  0.78611698947E+02  0.47000000000E+01 0.  1.
<mgrwt>
<rscale>  0 0.15291311E+03</rscale>
<asrwt>0</asrwt>
<pdfrwt beam="1">  1        2 0.71752281E-01 0.15964100E+03</pdfrwt>
<pdfrwt beam="2">  1       -2 0.79683857E-02 0.15964100E+03</pdfrwt>
<totfact> 0.62034056E+03</totfact>
</mgrwt>
</event>
<event>
 8    1  0.3551276E-004  0.4178505E+03  0.7546771E-02  0.1038514E+00
         -1   -1    0    0    0  501 -0.00000000000E+00  0.00000000000E+00  0.53115088670E+03  0.53115088670E+03  0.00000000000E+00 0.  1.
          1   -1    0    0  501    0  0.00000000000E+00 -0.00000000000E+00 -0.34723483461E+03  0.34723483461E+03  0.00000000000E+00 0. -1.
         25    2    1    2    0    0 -0.19706375500E+03  0.34661318278E+03 -0.26261149166E+02  0.41867489318E+03  0.12499678481E+03 0.  0.
         23    2    1    2    0    0  0.19706375500E+03 -0.34661318278E+03  0.21017720126E+03  0.45971082812E+03  0.90469705157E+02 0.  0.
          5    1    4    4  502    0  0.10575151935E+03 -0.21973248409E+03  0.17280774764E+03  0.29891529913E+03  0.47000000000E+01 0. -1.
         -5    1    3    3    0  503 -0.10077575844E+03  0.15688585726E+03  0.49156891348E+02  0.19289223847E+03  0.47000000000E+01 0. -1.
          5    1    3    3  503    0 -0.96287996566E+02  0.18972732553E+03 -0.75418040513E+02  0.22578265471E+03  0.47000000000E+01 0. -1.
         -5    1    4    4    0  502  0.91312235649E+02 -0.12688069869E+03  0.37369453613E+02  0.16079552899E+03  0.47000000000E+01 0.  1.
<mgrwt>
<rscale>  0 0.41558234E+03</rscale>
<asrwt>0</asrwt>
<pdfrwt beam="1">  1        1 0.53420744E-01 0.41785047E+03</pdfrwt>
<pdfrwt beam="2">  1       -1 0.81715521E-01 0.41785047E+03</pdfrwt>
<totfact> 0.11254254E+02</totfact>
</mgrwt>
</event>
<event>
 8    1  0.3551276E-004  0.1255647E+03  0.7546771E-02  0.1250147E+00
         -1   -1    0    0    0  501 -0.00000000000E+00  0.00000000000E+00  0.12957776579E+03  0.12957776579E+03  0.00000000000E+00 0.  1.
          1   -1    0    0  501    0  0.00000000000E+00 -0.00000000000E+00 -0.90457698436E+02  0.90457698436E+02  0.00000000000E+00 0. -1.
         25    2    1    2    0    0  0.88082879091E+00 -0.11899258077E+02  0.25126676211E+02  0.12805404002E+03  0.12499647638E+03 0.  0.
         23    2    1    2    0    0 -0.88082879091E+00  0.11899258077E+02  0.13993391147E+02  0.91981424204E+02  0.90124354093E+02 0.  0.
          5    1    3    3  502    0  0.13017970078E+02  0.46596204644E+02  0.43649983226E+02  0.65330581413E+02  0.47000000000E+01 0. -1.
         -5    1    3    3    0  502 -0.12137141287E+02 -0.58495462720E+02 -0.18523307015E+02  0.62723458612E+02  0.47000000000E+01 0. -1.
          5    1    4    4  503    0 -0.28479918973E+02  0.12437486759E+02 -0.27607953028E+02  0.41834028398E+02  0.47000000000E+01 0. -1.
         -5    1    4    4    0  503  0.27599090182E+02 -0.53822868187E+00  0.41601344175E+02  0.50147395806E+02  0.47000000000E+01 0.  1.
<mgrwt>
<rscale>  0 0.11582557E+03</rscale>
<asrwt>0</asrwt>
<pdfrwt beam="1">  1        1 0.13916569E-01 0.12556467E+03</pdfrwt>
<pdfrwt beam="2">  1       -1 0.19935041E-01 0.12556467E+03</pdfrwt>
<totfact> 0.78348058E+03</totfact>
</mgrwt>
</event>
<event>
 8    1  0.3551276E-004  0.2038712E+03  0.7546771E-02  0.1151525E+00
         -1   -1    0    0    0  501 -0.00000000000E+00  0.00000000000E+00  0.30079328695E+03  0.30079328695E+03  0.00000000000E+00 0.  1.
          1   -1    0    0  501    0  0.00000000000E+00 -0.00000000000E+00 -0.12335197241E+03  0.12335197241E+03  0.00000000000E+00 0. -1.
         25    2    1    2    0    0  0.12453993510E+03 -0.10212204650E+03  0.84717671579E+02  0.22077262762E+03  0.12499744563E+03 0.  0.
         23    2    1    2    0    0 -0.12453993510E+03  0.10212204650E+03  0.92723642955E+02  0.20337263174E+03  0.82605360364E+02 0.  0.
          5    1    3    3  502    0  0.11136068770E+03 -0.13063010041E+03  0.76377706126E+02  0.18793900578E+03  0.47000000000E+01 0.  1.
         -5    1    4    4    0  503 -0.97334453451E+02  0.11141595612E+03  0.91905398276E+02  0.17423031693E+03  0.47000000000E+01 0.  1.
          5    1    4    4  503    0 -0.27205481646E+02 -0.92939096196E+01  0.81824467870E+00  0.29142314801E+02  0.47000000000E+01 0. -1.
         -5    1    3    3    0  502  0.13179247393E+02  0.28508053912E+02  0.83399654534E+01  0.32833621845E+02  0.47000000000E+01 0.  1.
<mgrwt>
<rscale>  0 0.19789712E+03</rscale>
<asrwt>0</asrwt>
<pdfrwt beam="1">  1        1 0.18977227E-01 0.20387121E+03</pdfrwt>
<pdfrwt beam="2">  1       -1 0.46275890E-01 0.20387121E+03</pdfrwt>
<totfact> 0.12879053E+03</totfact>
</mgrwt>
</event>
<event>
 8    1  0.3551276E-004  0.1417710E+03  0.7546771E-02  0.1222201E+00
         -2   -1    0    0    0  501 -0.00000000000E+00  0.00000000000E+00  0.10989052625E+03  0.10989052625E+03  0.00000000000E+00 0.  1.
          2   -1    0    0  501    0  0.00000000000E+00 -0.00000000000E+00 -0.16521389416E+03  0.16521389416E+03  0.00000000000E+00 0. -1.
         25    2    1    2    0    0 -0.14960444743E+02 -0.65191473127E+02 -0.76795761589E+02  0.16123465443E+03  0.12500112686E+03 0.  0.
         23    2    1    2    0    0  0.14960444743E+02  0.65191473127E+02  0.21472393679E+02  0.11386976597E+03  0.89618730391E+02 0.  0.
          5    1    4    4  502    0 -0.36047600661E+02  0.17407271314E+02 -0.95106199501E+00  0.40316710270E+02  0.47000000000E+01 0. -1.
         -5    1    3    3    0  503  0.34647125238E+02 -0.33622095328E+02 -0.88662674996E+02  0.10106447704E+03  0.47000000000E+01 0.  1.
          5    1    3    3  503    0 -0.49607569981E+02 -0.31569377799E+02  0.11866913407E+02  0.60170177396E+02  0.47000000000E+01 0.  1.
         -5    1    4    4    0  502  0.51008045405E+02  0.47784201813E+02  0.22423455674E+02  0.73553055703E+02  0.47000000000E+01 0.  1.
<mgrwt>
<rscale>  0 0.13360638E+03</rscale>
<asrwt>0</asrwt>
<pdfrwt beam="1">  1        2 0.25417522E-01 0.14177103E+03</pdfrwt>
<pdfrwt beam="2">  1       -2 0.16906235E-01 0.14177103E+03</pdfrwt>
<totfact> 0.56493010E+03</totfact>
</mgrwt>
</event>
<event>
 8    1  0.3551276E-004  0.1517985E+03  0.7546771E-02  0.1207145E+00
         -2   -1    0    0    0  501 -0.00000000000E+00  0.00000000000E+00  0.21935476779E+02  0.21935476779E+02  0.00000000000E+00 0. -1.
          2   -1    0    0  501    0  0.00000000000E+00 -0.00000000000E+00 -0.10596988963E+04  0.10596988963E+04  0.00000000000E+00 0.  1.
         25    2    1    2    0    0  0.66896710610E+02 -0.54252787499E+02 -0.33505150135E+03  0.36783457998E+03  0.12499693929E+03 0.  0.
         23    2    1    2    0    0 -0.66896710610E+02  0.54252787499E+02 -0.70271191814E+03  0.71379979306E+03  0.91036090881E+02 0.  0.
          5    1    3    3  502    0 -0.44132292045E+01  0.35907282663E+02 -0.90337007428E+02  0.97425224923E+02  0.47000000000E+01 0.  1.
         -5    1    3    3    0  502  0.71309939814E+02 -0.90160070161E+02 -0.24471449392E+03  0.27040935506E+03  0.47000000000E+01 0.  1.
          5    1    4    4  503    0 -0.89435978644E+02  0.39121889478E+02 -0.55568226774E+03  0.56421112112E+03  0.47000000000E+01 0. -1.
         -5    1    4    4    0  503  0.22539268034E+02  0.15130898021E+02 -0.14702965039E+03  0.14958867194E+03  0.47000000000E+01 0.  1.
<mgrwt>
<rscale>  0 0.14469685E+03</rscale>
<asrwt>0</asrwt>
<pdfrwt beam="1">  1        2 0.16303053E+00 0.15179845E+03</pdfrwt>
<pdfrwt beam="2">  1       -2 0.33746902E-02 0.15179845E+03</pdfrwt>
<totfact> 0.83513738E+03</totfact>
</mgrwt>
</event>
<event>
 8    1  0.3551276E-004  0.1478720E+03  0.7546771E-02  0.1213067E+00
         -2   -1    0    0    0  501 -0.00000000000E+00  0.00000000000E+00  0.21321982493E+02  0.21321982493E+02  0.00000000000E+00 0. -1.
          2   -1    0    0  501    0  0.00000000000E+00 -0.00000000000E+00 -0.85761945559E+03  0.85761945559E+03  0.00000000000E+00 0.  1.
         25    2    1    2    0    0 -0.77242653810E+02 -0.16553896828E+02 -0.39548056014E+03  0.42222151784E+03  0.12500271039E+03 0.  0.
         23    2    1    2    0    0  0.77242653810E+02  0.16553896828E+02 -0.44081691295E+03  0.45671992025E+03  0.89627427371E+02 0.  0.
          5    1    3    3  502    0 -0.47321658883E+02  0.27012811721E+02 -0.34390021573E+03  0.34822188296E+03  0.47000000000E+01 0.  1.
         -5    1    3    3    0  502 -0.29920994927E+02 -0.43566708550E+02 -0.51580344414E+02  0.73999634872E+02  0.47000000000E+01 0.  1.
          5    1    4    4  503    0  0.34198390815E+02  0.37530401162E+02 -0.97318767000E+02  0.10986852760E+03  0.47000000000E+01 0. -1.
         -5    1    4    4    0  503  0.43044262996E+02 -0.20976504334E+02 -0.34349814595E+03  0.34685139265E+03  0.47000000000E+01 0.  1.
<mgrwt>
<rscale>  0 0.14019450E+03</rscale>
<asrwt>0</asrwt>
<pdfrwt beam="1">  1        2 0.13194144E+00 0.14787203E+03</pdfrwt>
<pdfrwt beam="2">  1       -2 0.32803053E-02 0.14787203E+03</pdfrwt>
<totfact> 0.11573642E+04</totfact>
</mgrwt>
</event>
<event>
 8    1  0.3551276E-004  0.2400885E+03  0.7546771E-02  0.1122419E+00
         -3   -1    0    0    0  501 -0.00000000000E+00  0.00000000000E+00  0.47846802870E+03  0.47846802870E+03  0.00000000000E+00 0.  1.
          3   -1    0    0  501    0  0.00000000000E+00 -0.00000000000E+00 -0.11376035470E+03  0.11376035470E+03  0.00000000000E+00 0. -1.
         25    2    1    2    0    0 -0.20474990890E+03 -0.97464750289E+01  0.16108296736E+03  0.28911972411E+03  0.12499989411E+03 0.  0.
         23    2    1    2    0    0  0.20474990890E+03  0.97464750289E+01  0.20362470663E+03  0.30310865929E+03  0.91620517446E+02 0.  0.
          5    1    3    3  502    0 -0.36439716533E+02  0.10850515867E+02 -0.18106741821E+02  0.42373703342E+02  0.47000000000E+01 0. -1.
         -5    1    4    4    0  503  0.18202248128E+03  0.65171301793E+01  0.21077623017E+03  0.27860970170E+03  0.47000000000E+01 0.  1.
          5    1    4    4  503    0  0.22727427620E+02  0.32293448496E+01 -0.71515235336E+01  0.24498957595E+02  0.47000000000E+01 0. -1.
         -5    1    3    3    0  502 -0.16831019236E+03 -0.20596990896E+02  0.17918970918E+03  0.24674602077E+03  0.47000000000E+01 0. -1.
<mgrwt>
<rscale>  0 0.23609952E+03</rscale>
<asrwt>0</asrwt>
<pdfrwt beam="1">  1        3 0.17501593E-01 0.24008851E+03</pdfrwt>
<pdfrwt beam="2">  1       -3 0.73610465E-01 0.24008851E+03</pdfrwt>
<totfact> 0.12591602E+02</totfact>
</mgrwt>
</event>
<event>
 8    1  0.3551276E-004  0.1696715E+03  0.7546771E-02  0.1185231E+00
         -1   -1    0    0    0  501 -0.00000000000E+00  0.00000000000E+00  0.47770063300E+03  0.47770063300E+03  0.00000000000E+00 0.  1.
          1   -1    0    0  501    0  0.00000000000E+00 -0.00000000000E+00 -0.62984917980E+02  0.62984917980E+02  0.00000000000E+00 0. -1.
         25    2    1    2    0    0 -0.84595114884E+02 -0.77512685675E+02  0.33447006765E+03  0.37504487460E+03  0.12499552754E+03 0.  0.
         23    2    1    2    0    0  0.84595114884E+02  0.77512685675E+02  0.80245647369E+02  0.16564067638E+03  0.88503784370E+02 0.  0.
          5    1    4    4  502    0  0.21736397038E+02  0.20593645851E+02 -0.18411026299E+02  0.35463010236E+02  0.47000000000E+01 0. -1.
         -5    1    4    4    0  502  0.62858717846E+02  0.56919039824E+02  0.98656673669E+02  0.13017766615E+03  0.47000000000E+01 0.  1.
          5    1    3    3  503    0 -0.39819099052E+02 -0.10073260248E+03  0.28194383890E+03  0.30207124349E+03  0.47000000000E+01 0. -1.
         -5    1    3    3    0  503 -0.44776015832E+02  0.23219916802E+02  0.52526228748E+02  0.72973631105E+02  0.47000000000E+01 0. -1.
<mgrwt>
<rscale>  0 0.16310889E+03</rscale>
<asrwt>0</asrwt>
<pdfrwt beam="1">  1        1 0.96899877E-02 0.16967154E+03</pdfrwt>
<pdfrwt beam="2">  1       -1 0.73492403E-01 0.16967154E+03</pdfrwt>
<totfact> 0.12844425E+03</totfact>
</mgrwt>
</event>
<event>
 8    1  0.3551276E-004  0.1647732E+03  0.7546771E-02  0.1189967E+00
         -2   -1    0    0    0  501 -0.00000000000E+00  0.00000000000E+00  0.45654276989E+02  0.45654276989E+02  0.00000000000E+00 0. -1.
          2   -1    0    0  501    0  0.00000000000E+00 -0.00000000000E+00 -0.51911492626E+03  0.51911492626E+03  0.00000000000E+00 0.  1.
         25    2    1    2    0    0  0.83837500599E+02  0.67052172134E+02 -0.23507667830E+03  0.28707360745E+03  0.12500196446E+03 0.  0.
         23    2    1    2    0    0 -0.83837500599E+02 -0.67052172134E+02 -0.23838397098E+03  0.27769559580E+03  0.93611997177E+02 0.  0.
          5    1    3    3  502    0  0.65751574755E+02  0.25201105710E+02 -0.23044233880E+03  0.24100648710E+03  0.47000000000E+01 0.  1.
         -5    1    4    4    0  503  0.18935100379E+01 -0.48132857040E+02 -0.12621479083E+03  0.13517625802E+03  0.47000000000E+01 0.  1.
          5    1    4    4  503    0 -0.85731010637E+02 -0.18919315095E+02 -0.11216918015E+03  0.14251933779E+03  0.47000000000E+01 0. -1.
         -5    1    3    3    0  502  0.18085925844E+02  0.41851066424E+02 -0.46343394942E+01  0.46067120347E+02  0.47000000000E+01 0.  1.
<mgrwt>
<rscale>  0 0.15888016E+03</rscale>
<asrwt>0</asrwt>
<pdfrwt beam="1">  1        2 0.79863841E-01 0.16477321E+03</pdfrwt>
<pdfrwt beam="2">  1       -2 0.70237344E-02 0.16477321E+03</pdfrwt>
<totfact> 0.67092855E+03</totfact>
</mgrwt>
</event>
<event>
 8    1  0.3551276E-004  0.1767919E+03  0.7546771E-02  0.1176732E+00
         -1   -1    0    0    0  501 -0.00000000000E+00  0.00000000000E+00  0.25049028519E+02  0.25049028519E+02  0.00000000000E+00 0.  1.
          1   -1    0    0  501    0  0.00000000000E+00 -0.00000000000E+00 -0.11012806108E+04  0.11012806108E+04  0.00000000000E+00 0. -1.
         25    2    1    2    0    0 -0.65226946629E+02  0.10666658757E+03 -0.60032442288E+03  0.62581530531E+03  0.12499227250E+03 0.  0.
         23    2    1    2    0    0  0.65226946629E+02 -0.10666658757E+03 -0.47590715944E+03  0.50051433405E+03  0.91622370143E+02 0.  0.
          5    1    3    3  502    0 -0.46364772556E+02 -0.98227263572E+01 -0.88067086245E+02  0.10012032644E+03  0.47000000000E+01 0.  1.
         -5    1    4    4    0  503 -0.13403932045E+02 -0.46480241358E+02 -0.92409611377E+02  0.10441122787E+03  0.47000000000E+01 0.  1.
          5    1    4    4  503    0  0.78630878674E+02 -0.60186346212E+02 -0.38349754806E+03  0.39610310618E+03  0.47000000000E+01 0. -1.
         -5    1    3    3    0  502 -0.18862174072E+02  0.11648931393E+03 -0.51225733663E+03  0.52569497887E+03  0.47000000000E+01 0.  1.
<mgrwt>
<rscale>  0 0.17107407E+03</rscale>
<asrwt>0</asrwt>
<pdfrwt beam="1">  1        1 0.16942777E+00 0.17679192E+03</pdfrwt>
<pdfrwt beam="2">  1       -1 0.38536971E-02 0.17679192E+03</pdfrwt>
<totfact> 0.34682110E+03</totfact>
</mgrwt>
</event>
<event>
 8    1  0.3551276E-004  0.1258546E+03  0.7546771E-02  0.1248546E+00
         -2   -1    0    0    0  501 -0.00000000000E+00  0.00000000000E+00  0.13559189677E+03  0.13559189677E+03  0.00000000000E+00 0. -1.
          2   -1    0    0  501    0  0.00000000000E+00 -0.00000000000E+00 -0.99479541105E+02  0.99479541105E+02  0.00000000000E+00 0.  1.
         25    2    1    2    0    0  0.10312581945E+02 -0.10400325000E+02 -0.18228832438E+02  0.12716792946E+03  0.12499950338E+03 0.  0.
         23    2    1    2    0    0 -0.10312581945E+02  0.10400325000E+02  0.54341188102E+02  0.10790350842E+03  0.92063490581E+02 0.  0.
          5    1    4    4  502    0  0.10038351943E+02  0.18564971389E+02  0.74607252076E+02  0.77677272962E+02  0.47000000000E+01 0. -1.
         -5    1    4    4    0  502 -0.20350933888E+02 -0.81646463895E+01 -0.20266063974E+02  0.30226235455E+02  0.47000000000E+01 0.  1.
          5    1    3    3  503    0 -0.24964430931E+02  0.22585327466E+02 -0.56113632371E+02  0.65606017759E+02  0.47000000000E+01 0.  1.
         -5    1    3    3    0  503  0.35277012876E+02 -0.32985652466E+02  0.37884799932E+02  0.61561911698E+02  0.47000000000E+01 0.  1.
<mgrwt>
<rscale>  0 0.11675639E+03</rscale>
<asrwt>0</asrwt>
<pdfrwt beam="1">  1        2 0.15304545E-01 0.12585465E+03</pdfrwt>
<pdfrwt beam="2">  1       -2 0.20860292E-01 0.12585465E+03</pdfrwt>
<totfact> 0.69950838E+03</totfact>
</mgrwt>
</event>
<event>
 8    1  0.3551276E-004  0.1264255E+03  0.7546771E-02  0.1246148E+00
         -2   -1    0    0    0  501 -0.00000000000E+00  0.00000000000E+00  0.91686686415E+02  0.91686686415E+02  0.00000000000E+00 0.  1.
          2   -1    0    0  501    0  0.00000000000E+00 -0.00000000000E+00 -0.14315105564E+03  0.14315105564E+03  0.00000000000E+00 0. -1.
         25    2    1    2    0    0 -0.14266843571E+01 -0.18849119083E+02 -0.55913923720E+02  0.13823810143E+03  0.12500432434E+03 0.  0.
         23    2    1    2    0    0  0.14266843571E+01  0.18849119083E+02  0.44495544970E+01  0.96599640619E+02  0.94627518799E+02 0.  0.
          5    1    4    4  502    0 -0.32662772289E+02  0.42082029331E+02 -0.59191450115E+01  0.53804090587E+02  0.47000000000E+01 0. -1.
         -5    1    4    4    0  502  0.34089456646E+02 -0.23232910248E+02  0.10368699508E+02  0.42795550032E+02  0.47000000000E+01 0.  1.
          5    1    3    3  503    0 -0.36363510585E+02  0.10212163985E+02  0.24844536069E+02  0.45452548529E+02  0.47000000000E+01 0. -1.
         -5    1    3    3    0  503  0.34936826227E+02 -0.29061283068E+02 -0.80758459788E+02  0.92785552904E+02  0.47000000000E+01 0. -1.
<mgrwt>
<rscale>  0 0.11816928E+03</rscale>
<asrwt>0</asrwt>
<pdfrwt beam="1">  1        2 0.22023239E-01 0.12642550E+03</pdfrwt>
<pdfrwt beam="2">  1       -2 0.14105644E-01 0.12642550E+03</pdfrwt>
<totfact> 0.88386395E+03</totfact>
</mgrwt>
</event>
<event>
 8    1  0.3551276E-004  0.1538767E+03  0.7546771E-02  0.1204447E+00
         -2   -1    0    0    0  501 -0.00000000000E+00  0.00000000000E+00  0.20779409735E+03  0.20779409735E+03  0.00000000000E+00 0. -1.
          2   -1    0    0  501    0  0.00000000000E+00 -0.00000000000E+00 -0.95271230871E+02  0.95271230871E+02  0.00000000000E+00 0.  1.
         25    2    1    2    0    0  0.83905659589E+02  0.31799182328E+02  0.59605334691E+02  0.16501763723E+03  0.12500670769E+03 0.  0.
         23    2    1    2    0    0 -0.83905659589E+02 -0.31799182328E+02  0.52917531785E+02  0.13804769099E+03  0.90584502584E+02 0.  0.
          5    1    3    3  502    0 -0.27657724968E+02 -0.11954988027E+02  0.27013207850E+02  0.40739107593E+02  0.47000000000E+01 0.  1.
         -5    1    3    3    0  502  0.11156338456E+03  0.43754170355E+02  0.32592126841E+02  0.12427852964E+03  0.47000000000E+01 0.  1.
          5    1    4    4  503    0 -0.16696207900E+02 -0.20420165590E+02  0.63485499720E+02  0.68907511896E+02  0.47000000000E+01 0. -1.
         -5    1    4    4    0  503 -0.67209451689E+02 -0.11379016738E+02 -0.10567967935E+02  0.69140179089E+02  0.47000000000E+01 0.  1.
<mgrwt>
<rscale>  0 0.14681123E+03</rscale>
<asrwt>0</asrwt>
<pdfrwt beam="1">  1        2 0.14657112E-01 0.15387665E+03</pdfrwt>
<pdfrwt beam="2">  1       -2 0.31968323E-01 0.15387665E+03</pdfrwt>
<totfact> 0.35213171E+03</totfact>
</mgrwt>
</event>
<event>
 8    1  0.3551276E-004  0.1255775E+03  0.7546771E-02  0.1249013E+00
          2   -1    0    0  501    0  0.00000000000E+00  0.00000000000E+00  0.43439735893E+03  0.43439735893E+03  0.00000000000E+00 0.  1.
         -2   -1    0    0    0  501 -0.00000000000E+00 -0.00000000000E+00 -0.49659801015E+02  0.49659801015E+02  0.00000000000E+00 0. -1.
         25    2    1    2    0    0 -0.11043361090E+02  0.47931435487E+01  0.47533680498E+02  0.13427265873E+03  0.12499906420E+03 0.  0.
         23    2    1    2    0    0  0.11043361090E+02 -0.47931435487E+01  0.33720387742E+03  0.34978450122E+03  0.92183579324E+02 0.  0.
          5    1    3    3  502    0 -0.32133503921E+02  0.56171581970E+02  0.44055820705E+02  0.78427125621E+02  0.47000000000E+01 0. -1.
         -5    1    4    4    0  503  0.45515946899E+02  0.13151462456E+01  0.27009502799E+03  0.27394679260E+03  0.47000000000E+01 0.  1.
          5    1    4    4  503    0 -0.34472585809E+02 -0.61082897943E+01  0.67108849429E+02  0.75837708617E+02  0.47000000000E+01 0. -1.
         -5    1    3    3    0  502  0.21090142831E+02 -0.51378438421E+02  0.34778597929E+01  0.55845533107E+02  0.47000000000E+01 0. -1.
<mgrwt>
<rscale>  0 0.11648371E+03</rscale>
<asrwt>0</asrwt>
<pdfrwt beam="1">  1        2 0.66830360E-01 0.12557745E+03</pdfrwt>
<pdfrwt beam="2">  1       -2 0.76399697E-02 0.12557745E+03</pdfrwt>
<totfact> 0.70487411E+03</totfact>
</mgrwt>
</event>
<event>
 8    1  0.3551276E-004  0.1368496E+03  0.7546771E-02  0.1228969E+00
         -1   -1    0    0    0  501 -0.00000000000E+00  0.00000000000E+00  0.14280424484E+02  0.14280424484E+02  0.00000000000E+00 0.  1.
          1   -1    0    0  501    0  0.00000000000E+00 -0.00000000000E+00 -0.10604287258E+04  0.10604287258E+04  0.00000000000E+00 0. -1.
         25    2    1    2    0    0 -0.49682085566E+02  0.25242911652E+02 -0.63808873142E+03  0.65259869401E+03  0.12498924770E+03 0.  0.
         23    2    1    2    0    0  0.49682085566E+02 -0.25242911652E+02 -0.40805956990E+03  0.42211045628E+03  0.92515460859E+02 0.  0.
          5    1    4    4  502    0  0.53230697510E+02 -0.49712286107E+02 -0.36508004269E+03  0.37230410435E+03  0.47000000000E+01 0. -1.
         -5    1    4    4    0  502 -0.35486119445E+01  0.24469374455E+02 -0.42979527210E+02  0.49806351926E+02  0.47000000000E+01 0.  1.
          5    1    3    3  503    0 -0.68554741478E+02  0.62189590909E+02 -0.37899618292E+03  0.39016342020E+03  0.47000000000E+01 0. -1.
         -5    1    3    3    0  503  0.18872655912E+02 -0.36946679257E+02 -0.25909254850E+03  0.26243527380E+03  0.47000000000E+01 0. -1.
<mgrwt>
<rscale>  0 0.12898571E+03</rscale>
<asrwt>0</asrwt>
<pdfrwt beam="1">  1        1 0.16314286E+00 0.13684965E+03</pdfrwt>
<pdfrwt beam="2">  1       -1 0.21969887E-02 0.13684965E+03</pdfrwt>
<totfact> 0.83464109E+03</totfact>
</mgrwt>
</event>
<event>
 8    1  0.3551276E-004  0.1803696E+03  0.7546771E-02  0.1172872E+00
          2   -1    0    0  501    0  0.00000000000E+00  0.00000000000E+00  0.10685907390E+04  0.10685907390E+04  0.00000000000E+00 0.  1.
         -2   -1    0    0    0  501 -0.00000000000E+00 -0.00000000000E+00 -0.27583050290E+02  0.27583050290E+02  0.00000000000E+00 0. -1.
         25    2    1    2    0    0 -0.11616365060E+03  0.58438896944E+02  0.63188096344E+03  0.65712004964E+03  0.12499643707E+03 0.  0.
         23    2    1    2    0    0  0.11616365060E+03 -0.58438896944E+02  0.40912672530E+03  0.43905373969E+03  0.92056561856E+02 0.  0.
          5    1    4    4  502    0  0.34260852384E+02  0.20269700716E+02  0.16428333703E+03  0.16910284326E+03  0.47000000000E+01 0. -1.
         -5    1    4    4    0  502  0.81902798212E+02 -0.78708597660E+02  0.24484338827E+03  0.26995089642E+03  0.47000000000E+01 0.  1.
          5    1    3    3  503    0 -0.34320852363E+02  0.86509662932E+02  0.35254697092E+03  0.36465504164E+03  0.47000000000E+01 0.  1.
         -5    1    3    3    0  503 -0.81842798233E+02 -0.28070765988E+02  0.27933399252E+03  0.29246500800E+03  0.47000000000E+01 0.  1.
<mgrwt>
<rscale>  0 0.17486043E+03</rscale>
<asrwt>0</asrwt>
<pdfrwt beam="1">  1        2 0.16439854E+00 0.18036964E+03</pdfrwt>
<pdfrwt beam="2">  1       -2 0.42435470E-02 0.18036964E+03</pdfrwt>
<totfact> 0.59064289E+03</totfact>
</mgrwt>
</event>
<event>
 8    1  0.3551276E-004  0.1712246E+03  0.7546771E-02  0.1183064E+00
         -3   -1    0    0    0  501 -0.00000000000E+00  0.00000000000E+00  0.28264752023E+03  0.28264752023E+03  0.00000000000E+00 0.  1.
          3   -1    0    0  501    0  0.00000000000E+00 -0.00000000000E+00 -0.10444017553E+03  0.10444017553E+03  0.00000000000E+00 0. -1.
         25    2    1    2    0    0 -0.93573895316E+02 -0.70261123531E+02  0.23212517633E+02  0.17279085243E+03  0.12500063338E+03 0.  0.
         23    2    1    2    0    0  0.93573895316E+02  0.70261123531E+02  0.15499482707E+03  0.21429684333E+03  0.90592722001E+02 0.  0.
          5    1    4    4  502    0  0.75018155783E+01  0.49515903395E+02  0.23050630696E+02  0.55331035608E+02  0.47000000000E+01 0. -1.
         -5    1    4    4    0  502  0.86072079738E+02  0.20745220136E+02  0.13194419637E+03  0.15896580772E+03  0.47000000000E+01 0.  1.
          5    1    3    3  503    0 -0.11688818980E+02  0.25541647468E+02  0.36140372496E+02  0.46013267311E+02  0.47000000000E+01 0. -1.
         -5    1    3    3    0  503 -0.81885076336E+02 -0.95802770998E+02 -0.12927854862E+02  0.12677758512E+03  0.47000000000E+01 0. -1.
<mgrwt>
<rscale>  0 0.16509330E+03</rscale>
<asrwt>0</asrwt>
<pdfrwt beam="1">  1        3 0.16067719E-01 0.17122458E+03</pdfrwt>
<pdfrwt beam="2">  1       -3 0.43484233E-01 0.17122458E+03</pdfrwt>
<totfact> 0.41644958E+02</totfact>
</mgrwt>
</event>
<event>
 8    1  0.3551276E-004  0.1361493E+03  0.7546771E-02  0.1229853E+00
          1   -1    0    0  501    0  0.00000000000E+00  0.00000000000E+00  0.48124194938E+03  0.48124194938E+03  0.00000000000E+00 0.  1.
         -1   -1    0    0    0  501 -0.00000000000E+00 -0.00000000000E+00 -0.39378474323E+02  0.39378474323E+02  0.00000000000E+00 0. -1.
         25    2    1    2    0    0  0.41835125928E+02 -0.34101781425E+02  0.36137970918E+03  0.38617602901E+03  0.12499408753E+03 0.  0.
         23    2    1    2    0    0 -0.41835125928E+02  0.34101781425E+02  0.80483765877E+02  0.13444439469E+03  0.93190930012E+02 0.  0.
          5    1    4    4  502    0 -0.60247867843E+02  0.52873790786E+02  0.66701053260E+02  0.10438660756E+03  0.47000000000E+01 0. -1.
         -5    1    4    4    0  502  0.18412741914E+02 -0.18772009361E+02  0.13782712616E+02  0.30057787133E+02  0.47000000000E+01 0.  1.
          5    1    3    3  503    0 -0.39155942578E+02 -0.13037990354E+02  0.57398359849E+02  0.70850820355E+02  0.47000000000E+01 0. -1.
         -5    1    3    3    0  503  0.80991068507E+02 -0.21063791071E+02  0.30398134933E+03  0.31532520866E+03  0.47000000000E+01 0. -1.
<mgrwt>
<rscale>  0 0.12839788E+03</rscale>
<asrwt>0</asrwt>
<pdfrwt beam="1">  1        1 0.74037219E-01 0.13614930E+03</pdfrwt>
<pdfrwt beam="2">  1       -1 0.60582272E-02 0.13614930E+03</pdfrwt>
<totfact> 0.60112117E+03</totfact>
</mgrwt>
</event>
<event>
 8    1  0.3551276E-004  0.1626929E+03  0.7546771E-02  0.1192360E+00
         -2   -1    0    0    0  501 -0.00000000000E+00  0.00000000000E+00  0.26219237561E+02  0.26219237561E+02  0.00000000000E+00 0. -1.
          2   -1    0    0  501    0  0.00000000000E+00 -0.00000000000E+00 -0.92587884664E+03  0.92587884664E+03  0.00000000000E+00 0.  1.
         25    2    1    2    0    0 -0.48786420670E+02 -0.91998618588E+02 -0.59168019162E+03  0.61364031576E+03  0.12500050923E+03 0.  0.
         23    2    1    2    0    0  0.48786420670E+02  0.91998618588E+02 -0.30797941746E+03  0.33845776844E+03  0.94119492005E+02 0.  0.
          5    1    4    4  502    0  0.19692596984E+02  0.12434704766E+02 -0.56142313845E+01  0.24413722629E+02  0.47000000000E+01 0. -1.
         -5    1    4    4    0  502  0.29093823686E+02  0.79563913822E+02 -0.30236518608E+03  0.31404404581E+03  0.47000000000E+01 0.  1.
          5    1    3    3  503    0 -0.26811385836E+01 -0.93663119334E+02 -0.22126683009E+03  0.24033532517E+03  0.47000000000E+01 0. -1.
         -5    1    3    3    0  503 -0.46105282086E+02  0.16645007459E+01 -0.37041336153E+03  0.37330499059E+03  0.47000000000E+01 0. -1.
<mgrwt>
<rscale>  0 0.15679826E+03</rscale>
<asrwt>0</asrwt>
<pdfrwt beam="1">  1        2 0.14244286E+00 0.16269293E+03</pdfrwt>
<pdfrwt beam="2">  1       -2 0.40337299E-02 0.16269293E+03</pdfrwt>
<totfact> 0.77413234E+03</totfact>
</mgrwt>
</event>
<event>
 8    1  0.3551276E-004  0.1622524E+03  0.7546771E-02  0.1193818E+00
          4   -1    0    0  501    0  0.00000000000E+00  0.00000000000E+00  0.63402448667E+02  0.63402448667E+02  0.00000000000E+00 0. -1.
         -4   -1    0    0    0  501 -0.00000000000E+00 -0.00000000000E+00 -0.35684171298E+03  0.35684171298E+03  0.00000000000E+00 0.  1.
         25    2    1    2    0    0  0.10307526976E+03  0.87446764118E+01 -0.18002925037E+03  0.24235586133E+03  0.12499940773E+03 0.  0.
         23    2    1    2    0    0 -0.10307526976E+03 -0.87446764118E+01 -0.11341001394E+03  0.17788830031E+03  0.89896804853E+02 0.  0.
          5    1    3    3  502    0  0.72990185410E+02  0.61204041476E+02 -0.14100902561E+03  0.17023259724E+03  0.47000000000E+01 0.  1.
         -5    1    4    4    0  503 -0.79425401572E+02  0.30546824935E+00 -0.12615709910E+03  0.14915157183E+03  0.47000000000E+01 0.  1.
          5    1    4    4  503    0 -0.23649868192E+02 -0.90501446611E+01  0.12747085157E+02  0.28736728483E+02  0.47000000000E+01 0. -1.
         -5    1    3    3    0  502  0.30085084354E+02 -0.52459365064E+02 -0.39020224760E+02  0.72123264096E+02  0.47000000000E+01 0.  1.
<mgrwt>
<rscale>  0 0.15554721E+03</rscale>
<asrwt>0</asrwt>
<pdfrwt beam="1">  1        4 0.97542227E-02 0.16225237E+03</pdfrwt>
<pdfrwt beam="2">  1       -4 0.54898726E-01 0.16225237E+03</pdfrwt>
<totfact> 0.43457728E+02</totfact>
</mgrwt>
</event>
<event>
 8    1  0.3551276E-004  0.1550234E+03  0.7546771E-02  0.1201213E+00
         -2   -1    0    0    0  501 -0.00000000000E+00  0.00000000000E+00  0.10620646653E+03  0.10620646653E+03  0.00000000000E+00 0. -1.
          2   -1    0    0  501    0  0.00000000000E+00 -0.00000000000E+00 -0.21097597557E+03  0.21097597557E+03  0.00000000000E+00 0.  1.
         25    2    1    2    0    0  0.91638466793E+02  0.32849398457E+01 -0.14193589224E+02  0.15567178079E+03  0.12499538364E+03 0.  0.
         23    2    1    2    0    0 -0.91638466793E+02 -0.32849398457E+01 -0.90575919811E+02  0.16151066131E+03  0.97330863772E+02 0.  0.
          5    1    3    3  502    0  0.21585951397E+02 -0.44618990481E+02 -0.43144181058E+02  0.65881089612E+02  0.47000000000E+01 0. -1.
         -5    1    3    3    0  502  0.70052515397E+02  0.47903930327E+02  0.28950591834E+02  0.89790691175E+02  0.47000000000E+01 0. -1.
          5    1    4    4  503    0 -0.32232370215E+02 -0.44168312538E+02 -0.14891625594E+02  0.56864892816E+02  0.47000000000E+01 0. -1.
         -5    1    4    4    0  503 -0.59406096578E+02  0.40883372693E+02 -0.75684294217E+02  0.10464576850E+03  0.47000000000E+01 0.  1.
<mgrwt>
<rscale>  0 0.14939944E+03</rscale>
<asrwt>0</asrwt>
<pdfrwt beam="1">  1        2 0.32457842E-01 0.15502337E+03</pdfrwt>
<pdfrwt beam="2">  1       -2 0.16339457E-01 0.15502337E+03</pdfrwt>
<totfact> 0.46030066E+03</totfact>
</mgrwt>
</event>
<event>
 8    1  0.3551276E-004  0.1288432E+03  0.7546771E-02  0.1246829E+00
         -1   -1    0    0    0  501 -0.00000000000E+00  0.00000000000E+00  0.10317453708E+02  0.10317453708E+02  0.00000000000E+00 0.  1.
          1   -1    0    0  501    0  0.00000000000E+00 -0.00000000000E+00 -0.11603896841E+04  0.11603896841E+04  0.00000000000E+00 0. -1.
         25    2    1    2    0    0 -0.15927065073E+01  0.31174171400E+02 -0.69127100967E+03  0.70317578069E+03  0.12500481618E+03 0.  0.
         23    2    1    2    0    0  0.15927065073E+01 -0.31174171400E+02 -0.45880122074E+03  0.46753135714E+03  0.84336493120E+02 0.  0.
          5    1    4    4  502    0  0.63014836021E+01 -0.56863476623E+02 -0.38167139598E+03  0.38596412810E+03  0.47000000000E+01 0. -1.
         -5    1    3    3    0  503 -0.34482377521E+02  0.58167844226E+02 -0.58011736109E+03  0.58406401627E+03  0.47000000000E+01 0. -1.
          5    1    3    3  503    0  0.32889671013E+02 -0.26993672826E+02 -0.11115364858E+03  0.11911176443E+03  0.47000000000E+01 0. -1.
         -5    1    4    4    0  502 -0.47087770948E+01  0.25689305224E+02 -0.77129824765E+02  0.81567229037E+02  0.47000000000E+01 0.  1.
<mgrwt>
<rscale>  0 0.11776592E+03</rscale>
<asrwt>0</asrwt>
<pdfrwt beam="1">  1        1 0.17852149E+00 0.12884320E+03</pdfrwt>
<pdfrwt beam="2">  1       -1 0.15873006E-02 0.12884320E+03</pdfrwt>
<totfact> 0.11301897E+04</totfact>
</mgrwt>
</event>
<event>
 8    1  0.3551276E-004  0.1528532E+03  0.7546771E-02  0.1205473E+00
          1   -1    0    0  501    0  0.00000000000E+00  0.00000000000E+00  0.44955637768E+02  0.44955637768E+02  0.00000000000E+00 0. -1.
         -1   -1    0    0    0  501 -0.00000000000E+00 -0.00000000000E+00 -0.44000719537E+03  0.44000719537E+03  0.00000000000E+00 0.  1.
         25    2    1    2    0    0  0.86959852237E+02 -0.13313574339E+02 -0.23768021048E+03  0.28258798276E+03  0.12499927353E+03 0.  0.
         23    2    1    2    0    0 -0.86959852237E+02  0.13313574339E+02 -0.15737134712E+03  0.20237485038E+03  0.91926992812E+02 0.  0.
          5    1    4    4  502    0 -0.29603181305E+02  0.11911995566E+02  0.26022247943E+01  0.32359010424E+02  0.47000000000E+01 0. -1.
         -5    1    3    3    0  503  0.79618541717E+02 -0.43467644220E+02 -0.23396688895E+03  0.25098036457E+03  0.47000000000E+01 0.  1.
          5    1    3    3  503    0  0.73413105201E+01  0.30154069881E+02 -0.37133215331E+01  0.31607618185E+02  0.47000000000E+01 0.  1.
         -5    1    4    4    0  502 -0.57356670932E+02  0.14015787730E+01 -0.15997357192E+03  0.17001583995E+03  0.47000000000E+01 0.  1.
<mgrwt>
<rscale>  0 0.14600278E+03</rscale>
<asrwt>0</asrwt>
<pdfrwt beam="1">  1        1 0.69162521E-02 0.15285315E+03</pdfrwt>
<pdfrwt beam="2">  1       -1 0.67693414E-01 0.15285315E+03</pdfrwt>
<totfact> 0.23713774E+03</totfact>
</mgrwt>
</event>
<event>
 8    1  0.3551276E-004  0.1259117E+03  0.7546771E-02  0.1249334E+00
         -2   -1    0    0    0  501 -0.00000000000E+00  0.00000000000E+00  0.10962972189E+03  0.10962972189E+03  0.00000000000E+00 0.  1.
          2   -1    0    0  501    0  0.00000000000E+00 -0.00000000000E+00 -0.10981388506E+03  0.10981388506E+03  0.00000000000E+00 0. -1.
         25    2    1    2    0    0  0.10784200317E+02  0.10509983926E+02 -0.14313550567E+02  0.12672270236E+03  0.12500802704E+03 0.  0.
         23    2    1    2    0    0 -0.10784200317E+02 -0.10509983926E+02  0.14129387396E+02  0.92720904588E+02  0.90392299566E+02 0.  0.
          5    1    3    3  502    0  0.36558093525E+02  0.22644892161E+02  0.43968138270E+02  0.61681216964E+02  0.47000000000E+01 0.  1.
         -5    1    3    3    0  502 -0.25773893208E+02 -0.12134908235E+02 -0.58281688837E+02  0.65041485397E+02  0.47000000000E+01 0.  1.
          5    1    4    4  503    0 -0.13953052861E+02  0.24387058825E+02 -0.26469271654E+02  0.38886098598E+02  0.47000000000E+01 0. -1.
         -5    1    4    4    0  503  0.31688525444E+01 -0.34897042751E+02  0.40598659051E+02  0.53834805989E+02  0.47000000000E+01 0.  1.
<mgrwt>
<rscale>  0 0.11629702E+03</rscale>
<asrwt>0</asrwt>
<pdfrwt beam="1">  1        2 0.16894444E-01 0.12591174E+03</pdfrwt>
<pdfrwt beam="2">  1       -2 0.16866111E-01 0.12591174E+03</pdfrwt>
<totfact> 0.89067432E+03</totfact>
</mgrwt>
</event>
<event>
 8    1  0.3551276E-004  0.3497853E+03  0.7546771E-02  0.1063784E+00
          2   -1    0    0  501    0  0.00000000000E+00  0.00000000000E+00  0.11386607941E+04  0.11386607941E+04  0.00000000000E+00 0. -1.
         -2   -1    0    0    0  501 -0.00000000000E+00 -0.00000000000E+00 -0.12522457606E+03  0.12522457606E+03  0.00000000000E+00 0.  1.
         25    2    1    2    0    0 -0.74970895353E+02 -0.31796782971E+03  0.77140777946E+03  0.84700631325E+03  0.12500222638E+03 0.  0.
         23    2    1    2    0    0  0.74970895353E+02  0.31796782971E+03  0.24202843857E+03  0.41687905690E+03  0.92120611855E+02 0.  0.
          5    1    4    4  502    0  0.27071051696E+01  0.19805490984E+03  0.12427860780E+03  0.23388103404E+03  0.47000000000E+01 0. -1.
         -5    1    3    3    0  503 -0.83484975587E+02 -0.27048032160E+03  0.53097300777E+03  0.60173396988E+03  0.47000000000E+01 0.  1.
          5    1    3    3  503    0  0.85140802337E+01 -0.47487508110E+02  0.24043477169E+03  0.24527234337E+03  0.47000000000E+01 0.  1.
         -5    1    4    4    0  502  0.72263790184E+02  0.11991291987E+03  0.11774983077E+03  0.18299802286E+03  0.47000000000E+01 0.  1.
<mgrwt>
<rscale>  0 0.34716632E+03</rscale>
<asrwt>0</asrwt>
<pdfrwt beam="1">  1        2 0.17517858E+00 0.34978527E+03</pdfrwt>
<pdfrwt beam="2">  1       -2 0.19265320E-01 0.34978527E+03</pdfrwt>
<totfact> 0.48500948E+02</totfact>
</mgrwt>
</event>
<event>
 8    1  0.3551276E-004  0.1967005E+03  0.7546771E-02  0.1156876E+00
          1   -1    0    0  501    0  0.00000000000E+00  0.00000000000E+00  0.94217243209E+02  0.94217243209E+02  0.00000000000E+00 0. -1.
         -1   -1    0    0    0  501 -0.00000000000E+00 -0.00000000000E+00 -0.52185691629E+03  0.52185691629E+03  0.00000000000E+00 0.  1.
         25    2    1    2    0    0 -0.14017494678E+03 -0.58447442946E+02 -0.38649674015E+03  0.43367133899E+03  0.12500392324E+03 0.  0.
         23    2    1    2    0    0  0.14017494678E+03  0.58447442946E+02 -0.41142932924E+02  0.18240282050E+03  0.92265533676E+02 0.  0.
          5    1    4    4  502    0  0.14340635621E+03  0.37430124283E+02 -0.16009301688E+02  0.14914685698E+03  0.47000000000E+01 0. -1.
         -5    1    3    3    0  503 -0.24337073590E+02 -0.29110076158E+02 -0.11286400556E+02  0.39864301353E+02  0.47000000000E+01 0. -1.
          5    1    3    3  503    0 -0.11583787319E+03 -0.29337366788E+02 -0.37521033960E+03  0.39380703764E+03  0.47000000000E+01 0. -1.
         -5    1    4    4    0  502 -0.32314094296E+01  0.21017318663E+02 -0.25133631236E+02  0.33255963523E+02  0.47000000000E+01 0.  1.
<mgrwt>
<rscale>  0 0.19176852E+03</rscale>
<asrwt>0</asrwt>
<pdfrwt beam="1">  1        1 0.14494960E-01 0.19670053E+03</pdfrwt>
<pdfrwt beam="2">  1       -1 0.80285680E-01 0.19670053E+03</pdfrwt>
<totfact> 0.63105682E+02</totfact>
</mgrwt>
</event>
<event>
 8    1  0.3551276E-004  0.1445817E+03  0.7546771E-02  0.1217589E+00
          1   -1    0    0  501    0  0.00000000000E+00  0.00000000000E+00  0.35560085197E+02  0.35560085197E+02  0.00000000000E+00 0. -1.
         -1   -1    0    0    0  501 -0.00000000000E+00 -0.00000000000E+00 -0.48748058376E+03  0.48748058376E+03  0.00000000000E+00 0.  1.
         25    2    1    2    0    0  0.60570303387E+02  0.40126699990E+02 -0.21374198672E+03  0.25804945072E+03  0.12499987370E+03 0.  0.
         23    2    1    2    0    0 -0.60570303387E+02 -0.40126699990E+02 -0.23817851184E+03  0.26499121823E+03  0.90622450500E+02 0.  0.
          5    1    4    4  502    0 -0.51521781401E+02  0.16749231014E+02 -0.81304743945E+02  0.97814017841E+02  0.47000000000E+01 0. -1.
         -5    1    4    4    0  502 -0.90485219861E+01 -0.56875931004E+02 -0.15687376789E+03  0.16717720039E+03  0.47000000000E+01 0.  1.
          5    1    3    3  503    0  0.61626901375E+02 -0.33523179595E+02 -0.11460512518E+03  0.13445483725E+03  0.47000000000E+01 0.  1.
         -5    1    3    3    0  503 -0.10565979871E+01  0.73649879585E+02 -0.99136861540E+02  0.12359461347E+03  0.47000000000E+01 0.  1.
<mgrwt>
<rscale>  0 0.13688063E+03</rscale>
<asrwt>0</asrwt>
<pdfrwt beam="1">  1        1 0.54707822E-02 0.14458175E+03</pdfrwt>
<pdfrwt beam="2">  1       -1 0.74997014E-01 0.14458175E+03</pdfrwt>
<totfact> 0.26538616E+03</totfact>
</mgrwt>
</event>
<event>
 8    1  0.3551276E-004  0.1269551E+03  0.7546771E-02  0.1246858E+00
         -1   -1    0    0    0  501 -0.00000000000E+00  0.00000000000E+00  0.40194909901E+02  0.40194909901E+02  0.00000000000E+00 0.  1.
          1   -1    0    0  501    0  0.00000000000E+00 -0.00000000000E+00 -0.30352622795E+03  0.30352622795E+03  0.00000000000E+00 0. -1.
         25    2    1    2    0    0  0.22199062403E+02  0.94283071856E-01 -0.15285891743E+03  0.19870440228E+03  0.12499913434E+03 0.  0.
         23    2    1    2    0    0 -0.22199062403E+02 -0.94283071856E-01 -0.11047240061E+03  0.14501673557E+03  0.91284692235E+02 0.  0.
          5    1    3    3  502    0 -0.31608291270E+02 -0.35295095028E+02 -0.11349836482E+03  0.12308044779E+03  0.47000000000E+01 0. -1.
         -5    1    4    4    0  503  0.25765689432E+02 -0.12272171435E+02 -0.63141536148E+01  0.29604653005E+02  0.47000000000E+01 0.  1.
          5    1    4    4  503    0 -0.47964751835E+02  0.12177888364E+02 -0.10415824700E+03  0.11541208256E+03  0.47000000000E+01 0. -1.
         -5    1    3    3    0  502  0.53807353673E+02  0.35389378100E+02 -0.39360552611E+02  0.75623954495E+02  0.47000000000E+01 0. -1.
<mgrwt>
<rscale>  0 0.11774872E+03</rscale>
<asrwt>0</asrwt>
<pdfrwt beam="1">  1        1 0.46696342E-01 0.12695507E+03</pdfrwt>
<pdfrwt beam="2">  1       -1 0.61838324E-02 0.12695507E+03</pdfrwt>
<totfact> 0.10360845E+04</totfact>
</mgrwt>
</event>
<event>
 8    1  0.3551276E-004  0.1402352E+03  0.7546771E-02  0.1222682E+00
          2   -1    0    0  501    0  0.00000000000E+00  0.00000000000E+00  0.42343218734E+03  0.42343218734E+03  0.00000000000E+00 0. -1.
         -2   -1    0    0    0  501 -0.00000000000E+00 -0.00000000000E+00 -0.39450338160E+02  0.39450338160E+02  0.00000000000E+00 0.  1.
         25    2    1    2    0    0  0.42166016946E+02  0.47580961279E+02  0.17119011149E+03  0.22129610386E+03  0.12499596174E+03 0.  0.
         23    2    1    2    0    0 -0.42166016946E+02 -0.47580961279E+02  0.21279173768E+03  0.24158642163E+03  0.95088141365E+02 0.  0.
          5    1    3    3  502    0  0.66979903816E+02  0.69538945067E+02  0.15820495680E+03  0.18539921993E+03  0.47000000000E+01 0.  1.
         -5    1    4    4    0  503 -0.69224422199E+02 -0.35920841690E+02  0.11263808084E+03  0.13708302138E+03  0.47000000000E+01 0.  1.
          5    1    4    4  503    0  0.27058405253E+02 -0.11660119589E+02  0.10015365685E+03  0.10450340025E+03  0.47000000000E+01 0. -1.
         -5    1    3    3    0  502 -0.24813886870E+02 -0.21957983788E+02  0.12985154693E+02  0.35896883932E+02  0.47000000000E+01 0.  1.
<mgrwt>
<rscale>  0 0.13327049E+03</rscale>
<asrwt>0</asrwt>
<pdfrwt beam="1">  1        2 0.65143411E-01 0.14023520E+03</pdfrwt>
<pdfrwt beam="2">  1       -2 0.60692831E-02 0.14023520E+03</pdfrwt>
<totfact> 0.10373573E+04</totfact>
</mgrwt>
</event>
<event>
 8    1  0.3551276E-004  0.1335590E+03  0.7546771E-02  0.1235258E+00
         -2   -1    0    0    0  501 -0.00000000000E+00  0.00000000000E+00  0.58968425485E+02  0.58968425485E+02  0.00000000000E+00 0.  1.
          2   -1    0    0  501    0  0.00000000000E+00 -0.00000000000E+00 -0.24325021098E+03  0.24325021098E+03  0.00000000000E+00 0. -1.
         25    2    1    2    0    0 -0.38091201600E+02 -0.27626961135E+02 -0.77151803922E+02  0.15424141596E+03  0.12499529963E+03 0.  0.
         23    2    1    2    0    0  0.38091201600E+02  0.27626961135E+02 -0.10712998157E+03  0.14797722050E+03  0.90588278574E+02 0.  0.
          5    1    3    3  502    0  0.23275423391E+02 -0.39416354190E+00  0.23337753039E+02  0.33296267296E+02  0.47000000000E+01 0.  1.
         -5    1    4    4    0  503 -0.20237760825E+02 -0.17133285106E+02 -0.18243146220E+02  0.32527201013E+02  0.47000000000E+01 0.  1.
          5    1    4    4  503    0  0.58328962425E+02  0.44760246241E+02 -0.88886835351E+02  0.11545001949E+03  0.47000000000E+01 0. -1.
         -5    1    3    3    0  502 -0.61366624991E+02 -0.27232797593E+02 -0.10048955696E+03  0.12094514867E+03  0.47000000000E+01 0.  1.
<mgrwt>
<rscale>  0 0.12487934E+03</rscale>
<asrwt>0</asrwt>
<pdfrwt beam="1">  1        2 0.37423109E-01 0.13355903E+03</pdfrwt>
<pdfrwt beam="2">  1       -2 0.90720654E-02 0.13355903E+03</pdfrwt>
<totfact> 0.10047300E+04</totfact>
</mgrwt>
</event>
<event>
 8    1  0.3551276E-004  0.1438506E+03  0.7546771E-02  0.1219033E+00
          2   -1    0    0  501    0  0.00000000000E+00  0.00000000000E+00  0.34710061240E+03  0.34710061240E+03  0.00000000000E+00 0. -1.
         -2   -1    0    0    0  501 -0.00000000000E+00 -0.00000000000E+00 -0.50445051607E+02  0.50445051607E+02  0.00000000000E+00 0.  1.
         25    2    1    2    0    0  0.20566027921E+02  0.68123579121E+02  0.20760060018E+03  0.25256881403E+03  0.12501685123E+03 0.  0.
         23    2    1    2    0    0 -0.20566027921E+02 -0.68123579121E+02  0.89054960612E+02  0.14497684997E+03  0.89575205726E+02 0.  0.
          5    1    3    3  502    0 -0.24271215403E+02  0.69932899794E+02  0.52070354042E+02  0.90626233182E+02  0.47000000000E+01 0.  1.
         -5    1    3    3    0  502  0.44837243324E+02 -0.18093206733E+01  0.15553024614E+03  0.16194258085E+03  0.47000000000E+01 0.  1.
          5    1    4    4  503    0 -0.27890437376E+02 -0.42102343621E+02 -0.11067454091E+01  0.50732619889E+02  0.47000000000E+01 0. -1.
         -5    1    4    4    0  503  0.73244094557E+01 -0.26021235500E+02  0.90161706021E+02  0.94244230081E+02  0.47000000000E+01 0.  1.
<mgrwt>
<rscale>  0 0.13584413E+03</rscale>
<asrwt>0</asrwt>
<pdfrwt beam="1">  1        2 0.53400093E-01 0.14385061E+03</pdfrwt>
<pdfrwt beam="2">  1       -2 0.77607774E-02 0.14385061E+03</pdfrwt>
<totfact> 0.88210265E+03</totfact>
</mgrwt>
</event>
<event>
 8    1  0.3551276E-004  0.1260923E+03  0.7546771E-02  0.1246710E+00
         -2   -1    0    0    0  501 -0.00000000000E+00  0.00000000000E+00  0.50003066470E+02  0.50003066470E+02  0.00000000000E+00 0.  1.
          2   -1    0    0  501    0  0.00000000000E+00 -0.00000000000E+00 -0.37380308509E+03  0.37380308509E+03  0.00000000000E+00 0. -1.
         25    2    1    2    0    0  0.16538398818E+02 -0.15830949525E+01 -0.53619257387E+02  0.13701930183E+03  0.12499295775E+03 0.  0.
         23    2    1    2    0    0 -0.16538398818E+02  0.15830949525E+01 -0.27018076123E+03  0.28678684973E+03  0.94726071453E+02 0.  0.
          5    1    3    3  502    0  0.38407687031E+02 -0.50034950126E+02 -0.27785993476E+01  0.63312378501E+02  0.47000000000E+01 0. -1.
         -5    1    3    3    0  502 -0.21869288214E+02  0.48451855173E+02 -0.50840658040E+02  0.73706923329E+02  0.47000000000E+01 0. -1.
          5    1    4    4  503    0 -0.43502203794E+02 -0.68539247612E+01 -0.24398678247E+03  0.24797390596E+03  0.47000000000E+01 0. -1.
         -5    1    4    4    0  503  0.26963804976E+02  0.84370197137E+01 -0.26193978768E+02  0.38812943770E+02  0.47000000000E+01 0.  1.
<mgrwt>
<rscale>  0 0.11783615E+03</rscale>
<asrwt>0</asrwt>
<pdfrwt beam="1">  1        2 0.57508166E-01 0.12609228E+03</pdfrwt>
<pdfrwt beam="2">  1       -2 0.76927796E-02 0.12609228E+03</pdfrwt>
<totfact> 0.81891539E+03</totfact>
</mgrwt>
</event>
<event>
 8    1  0.3551276E-004  0.1392565E+03  0.7546771E-02  0.1225882E+00
          1   -1    0    0  501    0  0.00000000000E+00  0.00000000000E+00  0.55539621109E+03  0.55539621109E+03  0.00000000000E+00 0. -1.
         -1   -1    0    0    0  501 -0.00000000000E+00 -0.00000000000E+00 -0.31158647433E+02  0.31158647433E+02  0.00000000000E+00 0.  1.
         25    2    1    2    0    0 -0.26444046190E+02  0.55396700060E+02  0.38594468374E+03  0.41029949630E+03  0.12499718319E+03 0.  0.
         23    2    1    2    0    0  0.26444046190E+02 -0.55396700060E+02  0.13829287993E+03  0.17625536222E+03  0.90404370017E+02 0.  0.
          5    1    3    3  502    0 -0.31700168908E+01 -0.38496420029E+02  0.15624149272E+03  0.16101402861E+03  0.47000000000E+01 0.  1.
         -5    1    4    4    0  503  0.50948869172E+02 -0.34169908879E+01  0.58211465090E+02  0.77576592891E+02  0.47000000000E+01 0.  1.
          5    1    4    4  503    0 -0.24504822982E+02 -0.51979709172E+02  0.80081414836E+02  0.98678769333E+02  0.47000000000E+01 0. -1.
         -5    1    3    3    0  502 -0.23274029299E+02  0.93893120089E+02  0.22970319102E+03  0.24928546769E+03  0.47000000000E+01 0.  1.
<mgrwt>
<rscale>  0 0.13106655E+03</rscale>
<asrwt>0</asrwt>
<pdfrwt beam="1">  1        1 0.85445563E-01 0.13925652E+03</pdfrwt>
<pdfrwt beam="2">  1       -1 0.47936385E-02 0.13925652E+03</pdfrwt>
<totfact> 0.70570483E+03</totfact>
</mgrwt>
</event>
<event>
 8    1  0.3551276E-004  0.1605583E+03  0.7546771E-02  0.1196000E+00
          1   -1    0    0  501    0  0.00000000000E+00  0.00000000000E+00  0.17465394885E+02  0.17465394885E+02  0.00000000000E+00 0. -1.
         -1   -1    0    0    0  501 -0.00000000000E+00 -0.00000000000E+00 -0.13228201428E+04  0.13228201428E+04  0.00000000000E+00 0.  1.
         25    2    1    2    0    0  0.37200427080E+00  0.10076035926E+03 -0.86413061791E+03  0.87892018629E+03  0.12500472257E+03 0.  0.
         23    2    1    2    0    0 -0.37200427080E+00 -0.10076035926E+03 -0.44122412997E+03  0.46136535136E+03  0.89590547413E+02 0.  0.
          5    1    3    3  502    0 -0.54038096347E+02  0.55485173567E+02 -0.61535659233E+03  0.62022943018E+03  0.47000000000E+01 0. -1.
         -5    1    3    3    0  502  0.54410100617E+02  0.45275185694E+02 -0.24877402558E+03  0.25869075610E+03  0.47000000000E+01 0. -1.
          5    1    4    4  503    0  0.28090689062E+02 -0.16584308815E+02 -0.48175972495E+02  0.58370715575E+02  0.47000000000E+01 0. -1.
         -5    1    4    4    0  503 -0.28462693333E+02 -0.84176050446E+02 -0.39304815747E+03  0.40299463579E+03  0.47000000000E+01 0.  1.
<mgrwt>
<rscale>  0 0.15369919E+03</rscale>
<asrwt>0</asrwt>
<pdfrwt beam="1">  1        1 0.26869846E-02 0.16055830E+03</pdfrwt>
<pdfrwt beam="2">  1       -1 0.20351073E+00 0.16055830E+03</pdfrwt>
<totfact> 0.62529929E+02</totfact>
</mgrwt>
</event>
<event>
 8    1  0.3551276E-004  0.1392934E+03  0.7546771E-02  0.1225788E+00
         -3   -1    0    0    0  501 -0.00000000000E+00  0.00000000000E+00  0.17156374399E+04  0.17156374399E+04  0.00000000000E+00 0.  1.
          3   -1    0    0  501    0  0.00000000000E+00 -0.00000000000E+00 -0.91029051190E+01  0.91029051190E+01  0.00000000000E+00 0. -1.
         25    2    1    2    0    0  0.32896344337E+01  0.61376919406E+02  0.86951360482E+03  0.88060010936E+03  0.12499878285E+03 0.  0.
         23    2    1    2    0    0 -0.32896344337E+01 -0.61376919406E+02  0.83702092997E+03  0.84414023567E+03  0.90502775254E+02 0.  0.
          5    1    4    4  502    0 -0.63083371381E-01  0.21998212157E+02  0.10616953752E+03  0.10852643003E+03  0.47000000000E+01 0. -1.
         -5    1    3    3    0  503 -0.53047624791E+02  0.49829587123E+02  0.63125981549E+03  0.63545895454E+03  0.47000000000E+01 0. -1.
          5    1    3    3  503    0  0.56337259224E+02  0.11547332283E+02  0.23825378933E+03  0.24514115482E+03  0.47000000000E+01 0. -1.
         -5    1    4    4    0  502 -0.32265510623E+01 -0.83375131563E+02  0.73085139245E+03  0.73561380564E+03  0.47000000000E+01 0.  1.
<mgrwt>
<rscale>  0 0.13113050E+03</rscale>
<asrwt>0</asrwt>
<pdfrwt beam="1">  1        3 0.14004483E-02 0.13929337E+03</pdfrwt>
<pdfrwt beam="2">  1       -3 0.26394396E+00 0.13929337E+03</pdfrwt>
<totfact> 0.26910305E+02</totfact>
</mgrwt>
</event>
<event>
 8    1  0.3551276E-004  0.1503563E+03  0.7546771E-02  0.1209265E+00
         -3   -1    0    0    0  501 -0.00000000000E+00  0.00000000000E+00  0.75086308734E+02  0.75086308734E+02  0.00000000000E+00 0.  1.
          3   -1    0    0  501    0  0.00000000000E+00 -0.00000000000E+00 -0.25056173577E+03  0.25056173577E+03  0.00000000000E+00 0. -1.
         25    2    1    2    0    0  0.12620743292E+02 -0.82620908591E+02 -0.84580690387E+02  0.17251354774E+03  0.12498613231E+03 0.  0.
         23    2    1    2    0    0 -0.12620743292E+02  0.82620908591E+02 -0.90894736650E+02  0.15313449676E+03  0.90569438830E+02 0.  0.
          5    1    3    3  502    0  0.15989072339E+02 -0.50341751473E+02 -0.11571992085E+03  0.12729152547E+03  0.47000000000E+01 0.  1.
         -5    1    3    3    0  502 -0.33683290468E+01 -0.32279157118E+02  0.31139230460E+02  0.45222022273E+02  0.47000000000E+01 0.  1.
          5    1    4    4  503    0 -0.17644320959E+02 -0.14784713164E+02 -0.29803640478E+02  0.37950715292E+02  0.47000000000E+01 0. -1.
         -5    1    4    4    0  503  0.50235776672E+01  0.97405621755E+02 -0.61091096172E+02  0.11518378147E+03  0.47000000000E+01 0.  1.
<mgrwt>
<rscale>  0 0.14306389E+03</rscale>
<asrwt>0</asrwt>
<pdfrwt beam="1">  1        3 0.38547959E-01 0.15035635E+03</pdfrwt>
<pdfrwt beam="2">  1       -3 0.11551740E-01 0.15035635E+03</pdfrwt>
<totfact> 0.90643660E+02</totfact>
</mgrwt>
</event>
<event>
 8    1  0.3551276E-004  0.1269104E+03  0.7546771E-02  0.1246867E+00
         -2   -1    0    0    0  501 -0.00000000000E+00  0.00000000000E+00  0.12606638636E+03  0.12606638636E+03  0.00000000000E+00 0.  1.
          2   -1    0    0  501    0  0.00000000000E+00 -0.00000000000E+00 -0.15521848510E+03  0.15521848510E+03  0.00000000000E+00 0. -1.
         25    2    1    2    0    0  0.14105105680E+02 -0.16931738853E+02 -0.10161239516E+03  0.16257715725E+03  0.12498246046E+03 0.  0.
         23    2    1    2    0    0 -0.14105105680E+02  0.16931738853E+02  0.72460296422E+02  0.11870771421E+03  0.91407817326E+02 0.  0.
          5    1    4    4  502    0  0.38302778945E+02  0.13622532230E+02  0.26409269327E+02  0.48705397705E+02  0.47000000000E+01 0. -1.
         -5    1    4    4    0  502 -0.52407884625E+02  0.33092066238E+01  0.46051027096E+02  0.70002316504E+02  0.47000000000E+01 0.  1.
          5    1    3    3  503    0  0.52782916841E+02  0.30412162948E+02 -0.29275029184E+02  0.67749932097E+02  0.47000000000E+01 0.  1.
         -5    1    3    3    0  503 -0.38677811161E+02 -0.47343901801E+02 -0.72337365980E+02  0.94827225156E+02  0.47000000000E+01 0.  1.
<mgrwt>
<rscale>  0 0.11774319E+03</rscale>
<asrwt>0</asrwt>
<pdfrwt beam="1">  1        2 0.23879767E-01 0.12691041E+03</pdfrwt>
<pdfrwt beam="2">  1       -2 0.19394829E-01 0.12691041E+03</pdfrwt>
<totfact> 0.47782752E+03</totfact>
</mgrwt>
</event>
<event>
 8    1  0.3551276E-004  0.1667509E+03  0.7546771E-02  0.1189347E+00
          1   -1    0    0  501    0  0.00000000000E+00  0.00000000000E+00  0.32233007308E+03  0.32233007308E+03  0.00000000000E+00 0. -1.
         -1   -1    0    0    0  501 -0.00000000000E+00 -0.00000000000E+00 -0.72709613474E+02  0.72709613474E+02  0.00000000000E+00 0.  1.
         25    2    1    2    0    0 -0.95232850091E+02  0.55773349232E+02  0.13080820089E+03  0.21193549178E+03  0.12500362010E+03 0.  0.
         23    2    1    2    0    0  0.95232850091E+02 -0.55773349232E+02  0.11881225871E+03  0.18310419476E+03  0.85034293667E+02 0.  0.
          5    1    4    4  502    0  0.97467515483E+02 -0.18584943864E+02  0.10057033463E+03  0.14135699106E+03  0.47000000000E+01 0. -1.
         -5    1    4    4    0  502 -0.22346653924E+01 -0.37188405368E+02  0.18241924080E+02  0.41747203707E+02  0.47000000000E+01 0.  1.
          5    1    3    3  503    0 -0.98120772872E-01  0.20993448392E+02 -0.20549107520E+02  0.29750467609E+02  0.47000000000E+01 0. -1.
         -5    1    3    3    0  503 -0.95134729318E+02  0.34779900839E+02  0.15135730841E+03  0.18218502418E+03  0.47000000000E+01 0. -1.
<mgrwt>
<rscale>  0 0.15942506E+03</rscale>
<asrwt>0</asrwt>
<pdfrwt beam="1">  1        1 0.49589241E-01 0.16675091E+03</pdfrwt>
<pdfrwt beam="2">  1       -1 0.11186095E-01 0.16675091E+03</pdfrwt>
<totfact> 0.39842377E+03</totfact>
</mgrwt>
</event>
<event>
 8    1  0.3551276E-004  0.1790661E+03  0.7546771E-02  0.1174215E+00
         -1   -1    0    0    0  501 -0.00000000000E+00  0.00000000000E+00  0.13997938929E+02  0.13997938929E+02  0.00000000000E+00 0.  1.
          1   -1    0    0  501    0  0.00000000000E+00 -0.00000000000E+00 -0.21987497343E+04  0.21987497343E+04  0.00000000000E+00 0. -1.
         25    2    1    2    0    0  0.43011214262E+02  0.12077915788E+03 -0.14630839152E+04  0.14740010874E+04  0.12500837257E+03 0.  0.
         23    2    1    2    0    0 -0.43011214262E+02 -0.12077915788E+03 -0.72166788014E+03  0.73874658580E+03  0.92219408310E+02 0.  0.
          5    1    3    3  502    0  0.86049252255E+02  0.86194048103E+02 -0.10963767896E+04  0.11031310178E+04  0.47000000000E+01 0. -1.
         -5    1    4    4    0  503  0.16218962921E+02 -0.69539782593E+02 -0.23053377721E+03  0.24138506282E+03  0.47000000000E+01 0.  1.
          5    1    4    4  503    0 -0.59230177184E+02 -0.51239375286E+02 -0.49113410294E+03  0.49736152298E+03  0.47000000000E+01 0. -1.
         -5    1    3    3    0  502 -0.43038037992E+02  0.34585109776E+02 -0.36670712564E+03  0.37087006960E+03  0.47000000000E+01 0. -1.
<mgrwt>
<rscale>  0 0.17353073E+03</rscale>
<asrwt>0</asrwt>
<pdfrwt beam="1">  1        1 0.33826917E+00 0.17906608E+03</pdfrwt>
<pdfrwt beam="2">  1       -1 0.21535292E-02 0.17906608E+03</pdfrwt>
<totfact> 0.15490607E+03</totfact>
</mgrwt>
</event>
<event>
 8    1  0.3551276E-004  0.1907167E+03  0.7546771E-02  0.1162874E+00
          1   -1    0    0  501    0  0.00000000000E+00  0.00000000000E+00  0.49180984868E+02  0.49180984868E+02  0.00000000000E+00 0. -1.
         -1   -1    0    0    0  501 -0.00000000000E+00 -0.00000000000E+00 -0.69606279891E+03  0.69606279891E+03  0.00000000000E+00 0.  1.
         25    2    1    2    0    0  0.12598854598E+03 -0.69814247911E+02 -0.42642409863E+03  0.46712993896E+03  0.12500290019E+03 0.  0.
         23    2    1    2    0    0 -0.12598854598E+03  0.69814247911E+02 -0.22045771541E+03  0.27811384481E+03  0.89434688241E+02 0.  0.
          5    1    3    3  502    0  0.25376208707E+02 -0.80926411050E+02 -0.24524248845E+03  0.25953613258E+03  0.47000000000E+01 0. -1.
         -5    1    4    4    0  503 -0.13309913864E+03  0.44461195212E+02 -0.20034833823E+03  0.24465020993E+03  0.47000000000E+01 0.  1.
          5    1    4    4  503    0  0.71105926539E+01  0.25353052700E+02 -0.20109377183E+02  0.33463634886E+02  0.47000000000E+01 0. -1.
         -5    1    3    3    0  502  0.10061233728E+03  0.11112163138E+02 -0.18118161017E+03  0.20759380638E+03  0.47000000000E+01 0. -1.
<mgrwt>
<rscale>  0 0.18518815E+03</rscale>
<asrwt>0</asrwt>
<pdfrwt beam="1">  1        1 0.75663059E-02 0.19071672E+03</pdfrwt>
<pdfrwt beam="2">  1       -1 0.10708658E+00 0.19071672E+03</pdfrwt>
<totfact> 0.80569717E+02</totfact>
</mgrwt>
</event>
<event>
 8    1  0.3551276E-004  0.1489172E+03  0.7546771E-02  0.1210694E+00
         -1   -1    0    0    0  501 -0.00000000000E+00  0.00000000000E+00  0.52669601776E+02  0.52669601776E+02  0.00000000000E+00 0.  1.
          1   -1    0    0  501    0  0.00000000000E+00 -0.00000000000E+00 -0.36078444279E+03  0.36078444279E+03  0.00000000000E+00 0. -1.
         25    2    1    2    0    0 -0.78463271152E+02 -0.19848667379E+02 -0.13450842365E+03  0.20067102994E+03  0.12500356678E+03 0.  0.
         23    2    1    2    0    0  0.78463271152E+02  0.19848667379E+02 -0.17360641736E+03  0.21278301462E+03  0.92665897970E+02 0.  0.
          5    1    4    4  502    0  0.36095130043E+02 -0.32496072579E+02 -0.10863288133E+03  0.11908839596E+03  0.47000000000E+01 0. -1.
         -5    1    4    4    0  502  0.42368141109E+02  0.52344739959E+02 -0.64973536030E+02  0.93694618664E+02  0.47000000000E+01 0.  1.
          5    1    3    3  503    0 -0.99888319358E+02  0.18712611237E+02 -0.74741964268E+02  0.12623901689E+03  0.47000000000E+01 0. -1.
         -5    1    3    3    0  503  0.21425048206E+02 -0.38561278616E+02 -0.59766459387E+02  0.74432013050E+02  0.47000000000E+01 0. -1.
<mgrwt>
<rscale>  0 0.14197610E+03</rscale>
<asrwt>0</asrwt>
<pdfrwt beam="1">  1        1 0.55505300E-01 0.14891725E+03</pdfrwt>
<pdfrwt beam="2">  1       -1 0.81030155E-02 0.14891725E+03</pdfrwt>
<totfact> 0.56301681E+03</totfact>
</mgrwt>
</event>
<event>
 8    1  0.3551276E-004  0.1473816E+03  0.7546771E-02  0.1213639E+00
          4   -1    0    0  501    0  0.00000000000E+00  0.00000000000E+00  0.34199082948E+03  0.34199082948E+03  0.00000000000E+00 0. -1.
         -4   -1    0    0    0  501 -0.00000000000E+00 -0.00000000000E+00 -0.53722785491E+02  0.53722785491E+02  0.00000000000E+00 0.  1.
         25    2    1    2    0    0 -0.20899729077E+02  0.75240603081E+02  0.12316593767E+03  0.19207078227E+03  0.12499356052E+03 0.  0.
         23    2    1    2    0    0  0.20899729077E+02 -0.75240603081E+02  0.16510210632E+03  0.20364283270E+03  0.90076360780E+02 0.  0.
          5    1    4    4  502    0 -0.31628902767E+02 -0.13715467515E+02  0.73641950938E+02  0.81447703941E+02  0.47000000000E+01 0. -1.
         -5    1    4    4    0  502  0.52528631845E+02 -0.61525135566E+02  0.91460155385E+02  0.12219512876E+03  0.47000000000E+01 0.  1.
          5    1    3    3  503    0 -0.52709812403E+02 -0.50385480607E+01  0.78315817503E+02  0.94652884590E+02  0.47000000000E+01 0. -1.
         -5    1    3    3    0  503  0.31810083326E+02  0.80279151142E+02  0.44850120163E+02  0.97417897678E+02  0.47000000000E+01 0. -1.
<mgrwt>
<rscale>  0 0.13976976E+03</rscale>
<asrwt>0</asrwt>
<pdfrwt beam="1">  1        4 0.52613972E-01 0.14738160E+03</pdfrwt>
<pdfrwt beam="2">  1       -4 0.82650441E-02 0.14738160E+03</pdfrwt>
<totfact> 0.61511696E+02</totfact>
</mgrwt>
</event>
<event>
 8    1  0.3551276E-004  0.2044847E+03  0.7546771E-02  0.1150211E+00
          1   -1    0    0  501    0  0.00000000000E+00  0.00000000000E+00  0.36293295166E+03  0.36293295166E+03  0.00000000000E+00 0. -1.
         -1   -1    0    0    0  501 -0.00000000000E+00 -0.00000000000E+00 -0.10818731514E+03  0.10818731514E+03  0.00000000000E+00 0.  1.
         25    2    1    2    0    0 -0.16158319217E+03  0.90290465992E+01  0.17682708659E+03  0.27033644307E+03  0.12499328874E+03 0.  0.
         23    2    1    2    0    0  0.16158319217E+03 -0.90290465992E+01  0.77918549924E+02  0.20078382373E+03  0.89734005682E+02 0.  0.
          5    1    4    4  502    0  0.14347086678E+03  0.19428385406E+02  0.82042882620E+02  0.16647665411E+03  0.47000000000E+01 0. -1.
         -5    1    4    4    0  502  0.18112325382E+02 -0.28457432005E+02 -0.41243326955E+01  0.34307169619E+02  0.47000000000E+01 0.  1.
          5    1    3    3  503    0 -0.14284480619E+03 -0.41058426030E+02  0.11197505058E+03  0.18614761604E+03  0.47000000000E+01 0.  1.
         -5    1    3    3    0  503 -0.18738385973E+02  0.50087472629E+02  0.64852036004E+02  0.84188827032E+02  0.47000000000E+01 0.  1.
<mgrwt>
<rscale>  0 0.19944207E+03</rscale>
<asrwt>0</asrwt>
<pdfrwt beam="1">  1        1 0.55835838E-01 0.20448465E+03</pdfrwt>
<pdfrwt beam="2">  1       -1 0.16644202E-01 0.20448465E+03</pdfrwt>
<totfact> 0.18529801E+03</totfact>
</mgrwt>
</event>
<event>
 8    1  0.3551276E-004  0.1254770E+03  0.7546771E-02  0.1249400E+00
          4   -1    0    0  501    0  0.00000000000E+00  0.00000000000E+00  0.58261775902E+03  0.58261775902E+03  0.00000000000E+00 0. -1.
         -4   -1    0    0    0  501 -0.00000000000E+00 -0.00000000000E+00 -0.22596747721E+02  0.22596747721E+02  0.00000000000E+00 0.  1.
         25    2    1    2    0    0  0.70246342990E+01  0.83413630801E+01  0.41199700343E+03  0.43068085505E+03  0.12500217697E+03 0.  0.
         23    2    1    2    0    0 -0.70246342990E+01 -0.83413630801E+01  0.14802400786E+03  0.17453365169E+03  0.91825730826E+02 0.  0.
          5    1    3    3  502    0  0.27325888260E+02 -0.37816228264E+02  0.33662318501E+03  0.33987354998E+03  0.47000000000E+01 0. -1.
         -5    1    4    4    0  503 -0.41231601164E+02  0.25139318121E+01  0.30500716770E+02  0.51563053742E+02  0.47000000000E+01 0.  1.
          5    1    4    4  503    0  0.34206966865E+02 -0.10855294892E+02  0.11752329109E+03  0.12297059794E+03  0.47000000000E+01 0. -1.
         -5    1    3    3    0  502 -0.20301253961E+02  0.46157591344E+02  0.75373818422E+02  0.90807305073E+02  0.47000000000E+01 0. -1.
<mgrwt>
<rscale>  0 0.11625842E+03</rscale>
<asrwt>0</asrwt>
<pdfrwt beam="1">  1        4 0.89633490E-01 0.12547696E+03</pdfrwt>
<pdfrwt beam="2">  1       -4 0.34764232E-02 0.12547696E+03</pdfrwt>
<totfact> 0.76686518E+02</totfact>
</mgrwt>
</event>
<event>
 8    1  0.3551276E-004  0.2369247E+03  0.7546771E-02  0.1124602E+00
          3   -1    0    0  501    0  0.00000000000E+00  0.00000000000E+00  0.11143572499E+04  0.11143572499E+04  0.00000000000E+00 0. -1.
         -3   -1    0    0    0  501 -0.00000000000E+00 -0.00000000000E+00 -0.51297439744E+02  0.51297439744E+02  0.00000000000E+00 0.  1.
         25    2    1    2    0    0 -0.77611852871E+02 -0.18569960267E+03  0.38166575446E+03  0.44922385305E+03  0.12500151953E+03 0.  0.
         23    2    1    2    0    0  0.77611852871E+02  0.18569960267E+03  0.68139405570E+03  0.71643083660E+03  0.92018163169E+02 0.  0.
          5    1    4    4  502    0  0.88402340735E+02  0.97018964148E+02  0.38122626934E+03  0.40321608560E+03  0.47000000000E+01 0. -1.
         -5    1    3    3    0  503 -0.37304365252E+02 -0.55206498200E+02  0.32527148680E+02  0.74293192902E+02  0.47000000000E+01 0.  1.
          5    1    3    3  503    0 -0.40307487619E+02 -0.13049310446E+03  0.34913860578E+03  0.37493066015E+03  0.47000000000E+01 0.  1.
         -5    1    4    4    0  502 -0.10790487864E+02  0.88680638518E+02  0.30016778635E+03  0.31321475099E+03  0.47000000000E+01 0.  1.
<mgrwt>
<rscale>  0 0.23291899E+03</rscale>
<asrwt>0</asrwt>
<pdfrwt beam="1">  1        3 0.17143956E+00 0.23692472E+03</pdfrwt>
<pdfrwt beam="2">  1       -3 0.78919146E-02 0.23692472E+03</pdfrwt>
<totfact> 0.65849485E+01</totfact>
</mgrwt>
</event>
<event>
 8    1  0.3551276E-004  0.1610568E+03  0.7546771E-02  0.1194971E+00
          1   -1    0    0  501    0  0.00000000000E+00  0.00000000000E+00  0.64030685649E+02  0.64030685649E+02  0.00000000000E+00 0. -1.
         -1   -1    0    0    0  501 -0.00000000000E+00 -0.00000000000E+00 -0.34755929717E+03  0.34755929717E+03  0.00000000000E+00 0.  1.
         25    2    1    2    0    0 -0.69945892515E+02 -0.73646944244E+02 -0.16717328943E+03  0.23213403583E+03  0.12499200621E+03 0.  0.
         23    2    1    2    0    0  0.69945892515E+02  0.73646944244E+02 -0.11635532209E+03  0.17945594699E+03  0.91376012466E+02 0.  0.
          5    1    4    4  502    0  0.15254042540E+02 -0.16454665876E+02 -0.49500981247E+02  0.54551617642E+02  0.47000000000E+01 0. -1.
         -5    1    3    3    0  503 -0.37068732313E+02 -0.10648964058E+03 -0.10321724024E+03  0.15293797158E+03  0.47000000000E+01 0. -1.
          5    1    3    3  503    0 -0.32877160202E+02  0.32842696339E+02 -0.63956049181E+02  0.79196064249E+02  0.47000000000E+01 0. -1.
         -5    1    4    4    0  502  0.54691849974E+02  0.90101610119E+02 -0.66854340843E+02  0.12490432935E+03  0.47000000000E+01 0.  1.
<mgrwt>
<rscale>  0 0.15456651E+03</rscale>
<asrwt>0</asrwt>
<pdfrwt beam="1">  1        1 0.98508748E-02 0.16105683E+03</pdfrwt>
<pdfrwt beam="2">  1       -1 0.53470661E-01 0.16105683E+03</pdfrwt>
<totfact> 0.23174177E+03</totfact>
</mgrwt>
</event>
<event>
 8    1  0.3551276E-004  0.1269816E+03  0.7546771E-02  0.1245733E+00
          2   -1    0    0  501    0  0.00000000000E+00  0.00000000000E+00  0.44779848513E+03  0.44779848513E+03  0.00000000000E+00 0. -1.
         -2   -1    0    0    0  501 -0.00000000000E+00 -0.00000000000E+00 -0.29037413058E+02  0.29037413058E+02  0.00000000000E+00 0.  1.
         25    2    1    2    0    0  0.18287127968E+02  0.12909887796E+02  0.18775108261E+03  0.22666009071E+03  0.12499297359E+03 0.  0.
         23    2    1    2    0    0 -0.18287127968E+02 -0.12909887796E+02  0.23100998946E+03  0.25017580748E+03  0.93387553589E+02 0.  0.
          5    1    4    4  502    0 -0.36883629623E+02 -0.32687564676E+02  0.20936560232E+03  0.21513931406E+03  0.47000000000E+01 0. -1.
         -5    1    3    3    0  503  0.52299446439E+02 -0.16056223439E+02  0.16949997869E+03  0.17817229635E+03  0.47000000000E+01 0.  1.
          5    1    3    3  503    0 -0.34012318471E+02  0.28966111235E+02  0.18251103923E+02  0.48487794364E+02  0.47000000000E+01 0.  1.
         -5    1    4    4    0  502  0.18596501655E+02  0.19777676880E+02  0.21644387142E+02  0.35036493422E+02  0.47000000000E+01 0.  1.
<mgrwt>
<rscale>  0 0.11841607E+03</rscale>
<asrwt>0</asrwt>
<pdfrwt beam="1">  1        2 0.68892069E-01 0.12698160E+03</pdfrwt>
<pdfrwt beam="2">  1       -2 0.44672947E-02 0.12698160E+03</pdfrwt>
<totfact> 0.15368501E+04</totfact>
</mgrwt>
</event>
<event>
 8    1  0.3551276E-004  0.1308534E+03  0.7546771E-02  0.1239889E+00
          1   -1    0    0  501    0  0.00000000000E+00  0.00000000000E+00  0.24920320285E+02  0.24920320285E+02  0.00000000000E+00 0. -1.
         -1   -1    0    0    0  501 -0.00000000000E+00 -0.00000000000E+00 -0.92648561561E+03  0.92648561561E+03  0.00000000000E+00 0.  1.
         25    2    1    2    0    0 -0.31680478150E+02  0.22225347277E+02 -0.79662172697E+03  0.80729721983E+03  0.12500002598E+03 0.  0.
         23    2    1    2    0    0  0.31680478150E+02 -0.22225347277E+02 -0.10494356835E+03  0.14410871607E+03  0.90865564167E+02 0.  0.
          5    1    4    4  502    0 -0.26524454078E+02  0.11475699236E+02 -0.19121834577E+02  0.34971029363E+02  0.47000000000E+01 0. -1.
         -5    1    4    4    0  502  0.58204932228E+02 -0.33701046513E+02 -0.85821733771E+02  0.10913768670E+03  0.47000000000E+01 0.  1.
          5    1    3    3  503    0  0.25399822083E+02  0.57017335569E+02 -0.44050672235E+03  0.44493189361E+03  0.47000000000E+01 0.  1.
         -5    1    3    3    0  503 -0.57080300233E+02 -0.34791988292E+02 -0.35611500463E+03  0.36236532622E+03  0.47000000000E+01 0.  1.
<mgrwt>
<rscale>  0 0.12196569E+03</rscale>
<asrwt>0</asrwt>
<pdfrwt beam="1">  1        1 0.38338955E-02 0.13085345E+03</pdfrwt>
<pdfrwt beam="2">  1       -1 0.14253625E+00 0.13085345E+03</pdfrwt>
<totfact> 0.10217574E+03</totfact>
</mgrwt>
</event>
<event>
 8    1  0.3551276E-004  0.1802375E+03  0.7546771E-02  0.1173048E+00
         -1   -1    0    0    0  501 -0.00000000000E+00  0.00000000000E+00  0.16235229485E+03  0.16235229485E+03  0.00000000000E+00 0.  1.
          1   -1    0    0  501    0  0.00000000000E+00 -0.00000000000E+00 -0.20259759066E+03  0.20259759066E+03  0.00000000000E+00 0. -1.
         25    2    1    2    0    0  0.11635966898E+03  0.57627029341E+02  0.43214970697E+02  0.18534583522E+03  0.12500039147E+03 0.  0.
         23    2    1    2    0    0 -0.11635966898E+03 -0.57627029341E+02 -0.83460266502E+02  0.17960405028E+03  0.91823481301E+02 0.  0.
          5    1    4    4  502    0 -0.32141889192E+02 -0.29311499751E+02  0.15600863837E+02  0.46451501708E+02  0.47000000000E+01 0.  1.
         -5    1    3    3    0  503  0.48501103735E+02  0.91783230333E+02  0.29312355736E+02  0.10797139729E+03  0.47000000000E+01 0. -1.
          5    1    3    3  503    0  0.67858565242E+02 -0.34156200992E+02  0.13902614961E+02  0.77374437934E+02  0.47000000000E+01 0. -1.
         -5    1    4    4    0  502 -0.84217779785E+02 -0.28315529590E+02 -0.99061130339E+02  0.13315254857E+03  0.47000000000E+01 0. -1.
<mgrwt>
<rscale>  0 0.17468544E+03</rscale>
<asrwt>0</asrwt>
<pdfrwt beam="1">  1        1 0.31168860E-01 0.18023747E+03</pdfrwt>
<pdfrwt beam="2">  1       -1 0.24977276E-01 0.18023747E+03</pdfrwt>
<totfact> 0.19833873E+03</totfact>
</mgrwt>
</event>
<event>
 8    1  0.3551276E-004  0.1479343E+03  0.7546771E-02  0.1212797E+00
          2   -1    0    0  501    0  0.00000000000E+00  0.00000000000E+00  0.11623176384E+03  0.11623176384E+03  0.00000000000E+00 0.  1.
         -2   -1    0    0    0  501 -0.00000000000E+00 -0.00000000000E+00 -0.15613212826E+03  0.15613212826E+03  0.00000000000E+00 0. -1.
         25    2    1    2    0    0 -0.72834522372E+01  0.78789260023E+02 -0.78176588126E+01  0.14814072727E+03  0.12499505236E+03 0.  0.
         23    2    1    2    0    0  0.72834522372E+01 -0.78789260023E+02 -0.32082705607E+02  0.12422316482E+03  0.90229144450E+02 0.  0.
          5    1    4    4  502    0  0.30768528853E+02 -0.36792469216E+01 -0.32822681342E+02  0.45383451127E+02  0.47000000000E+01 0. -1.
         -5    1    3    3    0  503  0.46095587615E+02 -0.59158800076E+01  0.54792640764E+01  0.47030980945E+02  0.47000000000E+01 0. -1.
          5    1    3    3  503    0 -0.53379039852E+02  0.84705140030E+02 -0.13296922889E+02  0.10110974632E+03  0.47000000000E+01 0. -1.
         -5    1    4    4    0  502 -0.23485076615E+02 -0.75110013101E+02  0.73997573544E+00  0.78839713697E+02  0.47000000000E+01 0.  1.
<mgrwt>
<rscale>  0 0.14039605E+03</rscale>
<asrwt>0</asrwt>
<pdfrwt beam="1">  1        2 0.17881810E-01 0.14793431E+03</pdfrwt>
<pdfrwt beam="2">  1       -2 0.24020327E-01 0.14793431E+03</pdfrwt>
<totfact> 0.46355125E+03</totfact>
</mgrwt>
</event>
<event>
 8    1  0.3551276E-004  0.2492426E+03  0.7546771E-02  0.1116463E+00
          1   -1    0    0  501    0  0.00000000000E+00  0.00000000000E+00  0.30221268381E+03  0.30221268381E+03  0.00000000000E+00 0. -1.
         -1   -1    0    0    0  501 -0.00000000000E+00 -0.00000000000E+00 -0.19636848827E+03  0.19636848827E+03  0.00000000000E+00 0.  1.
         25    2    1    2    0    0 -0.21154459333E+03  0.41786099384E+02  0.18996645733E+02  0.24996552319E+03  0.12499878867E+03 0.  0.
         23    2    1    2    0    0  0.21154459333E+03 -0.41786099384E+02  0.86847549806E+02  0.24861564888E+03  0.88147892170E+02 0.  0.
          5    1    3    3  502    0 -0.75672129578E+02  0.48391550010E+02 -0.43824846635E+02  0.10005358809E+03  0.47000000000E+01 0.  1.
         -5    1    3    3    0  502 -0.13587246375E+03 -0.66054506255E+01  0.62821492369E+02  0.14991193510E+03  0.47000000000E+01 0.  1.
          5    1    4    4  503    0  0.10163308403E+03 -0.47373222772E+02  0.80810620140E+02  0.13829660998E+03  0.47000000000E+01 0. -1.
         -5    1    4    4    0  503  0.10991150930E+03  0.55871233879E+01  0.60369296661E+01  0.11031903890E+03  0.47000000000E+01 0.  1.
<mgrwt>
<rscale>  0 0.24506651E+03</rscale>
<asrwt>0</asrwt>
<pdfrwt beam="1">  1        1 0.46494259E-01 0.24924263E+03</pdfrwt>
<pdfrwt beam="2">  1       -1 0.30210537E-01 0.24924263E+03</pdfrwt>
<totfact> 0.87776002E+02</totfact>
</mgrwt>
</event>
<event>
 8    1  0.3551276E-004  0.1272498E+03  0.7546771E-02  0.1246398E+00
          2   -1    0    0  501    0  0.00000000000E+00  0.00000000000E+00  0.88325548884E+02  0.88325548884E+02  0.00000000000E+00 0. -1.
         -2   -1    0    0    0  501 -0.00000000000E+00 -0.00000000000E+00 -0.14560816875E+03  0.14560816875E+03  0.00000000000E+00 0.  1.
         25    2    1    2    0    0  0.15672711741E+01 -0.23787322995E+02 -0.76136789514E+01  0.12747741743E+03  0.12499692306E+03 0.  0.
         23    2    1    2    0    0 -0.15672711741E+01  0.23787322995E+02 -0.49668940913E+02  0.10645630020E+03  0.91091421586E+02 0.  0.
          5    1    4    4  502    0 -0.81709855749E+01 -0.18353310405E+02  0.17294740192E+02  0.26922240739E+02  0.47000000000E+01 0. -1.
         -5    1    4    4    0  502  0.66037144007E+01  0.42140633400E+02 -0.66963681105E+02  0.79534059461E+02  0.47000000000E+01 0.  1.
          5    1    3    3  503    0 -0.19352418574E+02  0.25734599706E+02  0.42707299598E+02  0.53691611688E+02  0.47000000000E+01 0.  1.
         -5    1    3    3    0  503  0.20919689748E+02 -0.49521922701E+02 -0.50320978550E+02  0.73785805744E+02  0.47000000000E+01 0.  1.
<mgrwt>
<rscale>  0 0.11802080E+03</rscale>
<asrwt>0</asrwt>
<pdfrwt beam="1">  1        2 0.13588546E-01 0.12724985E+03</pdfrwt>
<pdfrwt beam="2">  1       -2 0.22401257E-01 0.12724985E+03</pdfrwt>
<totfact> 0.71274671E+03</totfact>
</mgrwt>
</event>
<event>
 8    1  0.3551276E-004  0.1359290E+03  0.7546771E-02  0.1231060E+00
         -4   -1    0    0    0  501 -0.00000000000E+00  0.00000000000E+00  0.14230106130E+03  0.14230106130E+03  0.00000000000E+00 0. -1.
          4   -1    0    0  501    0  0.00000000000E+00 -0.00000000000E+00 -0.13168448841E+03  0.13168448841E+03  0.00000000000E+00 0.  1.
         25    2    1    2    0    0 -0.50247619183E+02  0.18135192192E+02  0.69978935663E+02  0.15288478130E+03  0.12499198569E+03 0.  0.
         23    2    1    2    0    0  0.50247619183E+02 -0.18135192192E+02 -0.59362362775E+02  0.12110076842E+03  0.91037341610E+02 0.  0.
          5    1    4    4  502    0  0.22504947153E+02 -0.29781854264E+01  0.23060082334E+02  0.32698618198E+02  0.47000000000E+01 0. -1.
         -5    1    4    4    0  502  0.27742672030E+02 -0.15157006765E+02 -0.82422445109E+02  0.88402150218E+02  0.47000000000E+01 0.  1.
          5    1    3    3  503    0 -0.25366452415E+02  0.64654175294E+02  0.60607625968E+01  0.69874474126E+02  0.47000000000E+01 0.  1.
         -5    1    3    3    0  503 -0.24881166767E+02 -0.46518983103E+02  0.63918173066E+02  0.83010307172E+02  0.47000000000E+01 0.  1.
<mgrwt>
<rscale>  0 0.12760044E+03</rscale>
<asrwt>0</asrwt>
<pdfrwt beam="1">  1        4 0.20259152E-01 0.13592904E+03</pdfrwt>
<pdfrwt beam="2">  1       -4 0.21892471E-01 0.13592904E+03</pdfrwt>
<totfact> 0.69827494E+02</totfact>
</mgrwt>
</event>
<event>
 8    1  0.3551276E-004  0.1554650E+03  0.7546771E-02  0.1201801E+00
          1   -1    0    0  501    0  0.00000000000E+00  0.00000000000E+00  0.49013615693E+02  0.49013615693E+02  0.00000000000E+00 0. -1.
         -1   -1    0    0    0  501 -0.00000000000E+00 -0.00000000000E+00 -0.42279538496E+03  0.42279538496E+03  0.00000000000E+00 0.  1.
         25    2    1    2    0    0 -0.70335135120E+02  0.59977161725E+02 -0.22698713937E+03  0.27512276694E+03  0.12500033716E+03 0.  0.
         23    2    1    2    0    0  0.70335135120E+02 -0.59977161725E+02 -0.14679462990E+03  0.19668623371E+03  0.92695846743E+02 0.  0.
          5    1    4    4  502    0  0.88402253460E+02 -0.28418083968E+02 -0.11697093676E+03  0.14942167166E+03  0.47000000000E+01 0. -1.
         -5    1    3    3    0  503 -0.58317433347E+02 -0.11797045818E+02 -0.33710675218E+02  0.68546283239E+02  0.47000000000E+01 0.  1.
          5    1    3    3  503    0 -0.12017701773E+02  0.71774207543E+02 -0.19327646415E+03  0.20657648370E+03  0.47000000000E+01 0.  1.
         -5    1    4    4    0  502 -0.18067118340E+02 -0.31559077757E+02 -0.29823693133E+02  0.47264562053E+02  0.47000000000E+01 0.  1.
<mgrwt>
<rscale>  0 0.14892438E+03</rscale>
<asrwt>0</asrwt>
<pdfrwt beam="1">  1        1 0.75405565E-02 0.15546503E+03</pdfrwt>
<pdfrwt beam="2">  1       -1 0.65045441E-01 0.15546503E+03</pdfrwt>
<totfact> 0.22825533E+03</totfact>
</mgrwt>
</event>
<event>
 8    1  0.3551276E-004  0.1459087E+03  0.7546771E-02  0.1215520E+00
         -2   -1    0    0    0  501 -0.00000000000E+00  0.00000000000E+00  0.16009232669E+02  0.16009232669E+02  0.00000000000E+00 0.  1.
          2   -1    0    0  501    0  0.00000000000E+00 -0.00000000000E+00 -0.10897132963E+04  0.10897132963E+04  0.00000000000E+00 0. -1.
         25    2    1    2    0    0  0.74488679024E+02  0.10424516080E+02 -0.57228536810E+03  0.59059281887E+03  0.12502840207E+03 0.  0.
         23    2    1    2    0    0 -0.74488679024E+02 -0.10424516080E+02 -0.50141869554E+03  0.51512971010E+03  0.90998220632E+02 0.  0.
          5    1    4    4  502    0 -0.42598320725E+02  0.24978110179E+02 -0.39900534629E+03  0.40207695692E+03  0.47000000000E+01 0. -1.
         -5    1    3    3    0  503 -0.17003088302E+02  0.14746830569E+02 -0.19200551665E+02  0.29955386959E+02  0.47000000000E+01 0. -1.
          5    1    3    3  503    0  0.91491767326E+02 -0.43223144885E+01 -0.55308481644E+03  0.56063743191E+03  0.47000000000E+01 0. -1.
         -5    1    4    4    0  502 -0.31890358299E+02 -0.35402626260E+02 -0.10241334925E+03  0.11305275318E+03  0.47000000000E+01 0.  1.
<mgrwt>
<rscale>  0 0.13838388E+03</rscale>
<asrwt>0</asrwt>
<pdfrwt beam="1">  1        2 0.16764813E+00 0.14590865E+03</pdfrwt>
<pdfrwt beam="2">  1       -2 0.24629599E-02 0.14590865E+03</pdfrwt>
<totfact> 0.12725646E+04</totfact>
</mgrwt>
</event>
<event>
 8    1  0.3551276E-004  0.1692730E+03  0.7546771E-02  0.1185234E+00
         -2   -1    0    0    0  501 -0.00000000000E+00  0.00000000000E+00  0.23812800501E+02  0.23812800501E+02  0.00000000000E+00 0. -1.
          2   -1    0    0  501    0  0.00000000000E+00 -0.00000000000E+00 -0.10440890324E+04  0.10440890324E+04  0.00000000000E+00 0.  1.
         25    2    1    2    0    0 -0.10128854123E+03  0.52618802314E+02 -0.56503773176E+03  0.58984826133E+03  0.12500090457E+03 0.  0.
         23    2    1    2    0    0  0.10128854123E+03 -0.52618802314E+02 -0.45523850012E+03  0.47805357155E+03  0.90912146257E+02 0.  0.
          5    1    3    3  502    0 -0.26955758665E+02  0.81910524630E+02 -0.23877332982E+03  0.25391088989E+03  0.47000000000E+01 0.  1.
         -5    1    3    3    0  502 -0.74332782566E+02 -0.29291722316E+02 -0.32626440194E+03  0.33593737144E+03  0.47000000000E+01 0.  1.
          5    1    4    4  503    0  0.42951349097E+02 -0.47449616975E+02 -0.10604172229E+03  0.12394846270E+03  0.47000000000E+01 0. -1.
         -5    1    4    4    0  503  0.58337192135E+02 -0.51691853387E+01 -0.34919677783E+03  0.35410510885E+03  0.47000000000E+01 0.  1.
<mgrwt>
<rscale>  0 0.16310625E+03</rscale>
<asrwt>0</asrwt>
<pdfrwt beam="1">  1        2 0.16062903E+00 0.16927295E+03</pdfrwt>
<pdfrwt beam="2">  1       -2 0.36635091E-02 0.16927295E+03</pdfrwt>
<totfact> 0.75873695E+03</totfact>
</mgrwt>
</event>
<event>
 8    1  0.3551276E-004  0.1478572E+03  0.7546771E-02  0.1213019E+00
          1   -1    0    0  501    0  0.00000000000E+00  0.00000000000E+00  0.41109749923E+03  0.41109749923E+03  0.00000000000E+00 0. -1.
         -1   -1    0    0    0  501 -0.00000000000E+00 -0.00000000000E+00 -0.58933813730E+02  0.58933813730E+02  0.00000000000E+00 0.  1.
         25    2    1    2    0    0 -0.62120918845E+02  0.48750561743E+02  0.70072909676E+02  0.16362139545E+03  0.12500449012E+03 0.  0.
         23    2    1    2    0    0  0.62120918845E+02 -0.48750561743E+02  0.28209077583E+03  0.30640991752E+03  0.89867713428E+02 0.  0.
          5    1    4    4  502    0  0.46215269180E+02  0.17842142405E+02  0.97284852711E+02  0.10927317017E+03  0.47000000000E+01 0. -1.
         -5    1    3    3    0  503 -0.76818278954E+02  0.78234551870E+02  0.34803184341E+02  0.11513055515E+03  0.47000000000E+01 0.  1.
          5    1    3    3  503    0  0.14697360109E+02 -0.29483990127E+02  0.35269725335E+02  0.48490840302E+02  0.47000000000E+01 0.  1.
         -5    1    4    4    0  502  0.15905649665E+02 -0.66592704148E+02  0.18480592312E+03  0.19713674735E+03  0.47000000000E+01 0.  1.
<mgrwt>
<rscale>  0 0.14023091E+03</rscale>
<asrwt>0</asrwt>
<pdfrwt beam="1">  1        1 0.63245767E-01 0.14785719E+03</pdfrwt>
<pdfrwt beam="2">  1       -1 0.90667409E-02 0.14785719E+03</pdfrwt>
<totfact> 0.40259492E+03</totfact>
</mgrwt>
</event>
<event>
 8    1  0.3551276E-004  0.1266787E+03  0.7546771E-02  0.1246690E+00
         -1   -1    0    0    0  501 -0.00000000000E+00  0.00000000000E+00  0.10404534828E+04  0.10404534828E+04  0.00000000000E+00 0.  1.
          1   -1    0    0  501    0  0.00000000000E+00 -0.00000000000E+00 -0.11954295321E+02  0.11954295321E+02  0.00000000000E+00 0. -1.
         25    2    1    2    0    0  0.20301016396E+02  0.32505021027E+01  0.64720141767E+03  0.65948250118E+03  0.12499918916E+03 0.  0.
         23    2    1    2    0    0 -0.20301016396E+02 -0.32505021027E+01  0.38129776985E+03  0.39292527699E+03  0.92626059901E+02 0.  0.
          5    1    4    4  502    0 -0.31021911505E+02 -0.34983922502E+02  0.11125515026E+03  0.12077264709E+03  0.47000000000E+01 0. -1.
         -5    1    4    4    0  502  0.10720895109E+02  0.31733420399E+02  0.27004261960E+03  0.27215262990E+03  0.47000000000E+01 0.  1.
          5    1    3    3  503    0  0.46808859873E+02 -0.43144862999E+02  0.22474346751E+03  0.23363275617E+03  0.47000000000E+01 0.  1.
         -5    1    3    3    0  503 -0.26507843478E+02  0.46395365102E+02  0.42245795016E+03  0.42584974501E+03  0.47000000000E+01 0.  1.
<mgrwt>
<rscale>  0 0.11784789E+03</rscale>
<asrwt>0</asrwt>
<pdfrwt beam="1">  1        1 0.18391232E-02 0.12667871E+03</pdfrwt>
<pdfrwt beam="2">  1       -1 0.16006969E+00 0.12667871E+03</pdfrwt>
<totfact> 0.20897348E+03</totfact>
</mgrwt>
</event>
<event>
 8    1  0.3551276E-004  0.1491753E+03  0.7546771E-02  0.1209999E+00
         -3   -1    0    0    0  501 -0.00000000000E+00  0.00000000000E+00  0.28267811534E+03  0.28267811534E+03  0.00000000000E+00 0.  1.
          3   -1    0    0  501    0  0.00000000000E+00 -0.00000000000E+00 -0.67359751810E+02  0.67359751810E+02  0.00000000000E+00 0. -1.
         25    2    1    2    0    0 -0.81416147256E+02  0.13817732359E+01  0.93531102488E+02  0.17607198732E+03  0.12499111670E+03 0.  0.
         23    2    1    2    0    0  0.81416147256E+02 -0.13817732359E+01  0.12178726105E+03  0.17396587983E+03  0.93816267575E+02 0.  0.
          5    1    3    3  502    0 -0.36184054854E+02 -0.19487114230E+02 -0.24357695407E+02  0.48004382844E+02  0.47000000000E+01 0. -1.
         -5    1    3    3    0  502 -0.45232092401E+02  0.20868887466E+02  0.11788879790E+03  0.12806760448E+03  0.47000000000E+01 0. -1.
          5    1    4    4  503    0 -0.12533642683E+02  0.21033414661E+02  0.12017593450E+02  0.27676872720E+02  0.47000000000E+01 0. -1.
         -5    1    4    4    0  503  0.93949789939E+02 -0.22415187897E+02  0.10976966760E+03  0.14628900711E+03  0.47000000000E+01 0.  1.
<mgrwt>
<rscale>  0 0.14250349E+03</rscale>
<asrwt>0</asrwt>
<pdfrwt beam="1">  1        3 0.10363039E-01 0.14917532E+03</pdfrwt>
<pdfrwt beam="2">  1       -3 0.43488940E-01 0.14917532E+03</pdfrwt>
<totfact> 0.85874475E+02</totfact>
</mgrwt>
</event>
<event>
 8    1  0.3551276E-004  0.1658022E+03  0.7546771E-02  0.1189049E+00
          1   -1    0    0  501    0  0.00000000000E+00  0.00000000000E+00  0.15645857769E+04  0.15645857769E+04  0.00000000000E+00 0. -1.
         -1   -1    0    0    0  501 -0.00000000000E+00 -0.00000000000E+00 -0.16136935158E+02  0.16136935158E+02  0.00000000000E+00 0.  1.
         25    2    1    2    0    0  0.10795679934E+03 -0.14524431150E+02  0.10184611577E+04  0.10318689309E+04  0.12499892472E+03 0.  0.
         23    2    1    2    0    0 -0.10795679934E+03  0.14524431150E+02  0.52998768405E+03  0.54885378117E+03  0.92129790170E+02 0.  0.
          5    1    4    4  502    0 -0.65999554172E+02 -0.88215792729E+01  0.45374744529E+03  0.45863121952E+03  0.47000000000E+01 0. -1.
         -5    1    3    3    0  503 -0.64749768452E+01 -0.44560001747E+02  0.21355931228E+03  0.21830526549E+03  0.47000000000E+01 0. -1.
          5    1    3    3  503    0  0.11443177618E+03  0.30035570597E+02  0.80490184539E+03  0.81356366537E+03  0.47000000000E+01 0. -1.
         -5    1    4    4    0  502 -0.41957245164E+02  0.23346010423E+02  0.76240238760E+02  0.90222561650E+02  0.47000000000E+01 0.  1.
<mgrwt>
<rscale>  0 0.15968813E+03</rscale>
<asrwt>0</asrwt>
<pdfrwt beam="1">  1        1 0.24070538E+00 0.16580217E+03</pdfrwt>
<pdfrwt beam="2">  1       -1 0.24826066E-02 0.16580217E+03</pdfrwt>
<totfact> 0.32185912E+03</totfact>
</mgrwt>
</event>
<event>
 8    1  0.3551276E-004  0.1264265E+03  0.7546771E-02  0.1247491E+00
          2   -1    0    0  501    0  0.00000000000E+00  0.00000000000E+00  0.19073644551E+04  0.19073644551E+04  0.00000000000E+00 0. -1.
         -2   -1    0    0    0  501 -0.00000000000E+00 -0.00000000000E+00 -0.65159099932E+01  0.65159099932E+01  0.00000000000E+00 0.  1.
         25    2    1    2    0    0 -0.13769225748E+02 -0.13004741530E+02  0.12317434709E+04  0.12382146961E+04  0.12499976195E+03 0.  0.
         23    2    1    2    0    0  0.13769225748E+02  0.13004741530E+02  0.66910507418E+03  0.67566566903E+03  0.91998810519E+02 0.  0.
          5    1    4    4  502    0  0.37358617890E+02 -0.27144696776E+02  0.37457660347E+03  0.37744168127E+03  0.47000000000E+01 0. -1.
         -5    1    3    3    0  503 -0.39021081646E+02 -0.60658272022E+02  0.69543851499E+03  0.69918444555E+03  0.47000000000E+01 0. -1.
          5    1    3    3  503    0  0.25251855898E+02  0.47653530492E+02  0.53630495593E+03  0.53903025050E+03  0.47000000000E+01 0. -1.
         -5    1    4    4    0  502 -0.23589392142E+02  0.40149438307E+02  0.29452847071E+03  0.29822398776E+03  0.47000000000E+01 0.  1.
<mgrwt>
<rscale>  0 0.11737551E+03</rscale>
<asrwt>0</asrwt>
<pdfrwt beam="1">  1        2 0.29344024E+00 0.12642648E+03</pdfrwt>
<pdfrwt beam="2">  1       -2 0.10024492E-02 0.12642648E+03</pdfrwt>
<totfact> 0.17119302E+04</totfact>
</mgrwt>
</event>
<event>
 8    1  0.3551276E-004  0.1343004E+03  0.7546771E-02  0.1233649E+00
          1   -1    0    0  501    0  0.00000000000E+00  0.00000000000E+00  0.81336328857E+03  0.81336328857E+03  0.00000000000E+00 0. -1.
         -1   -1    0    0    0  501 -0.00000000000E+00 -0.00000000000E+00 -0.21645449551E+02  0.21645449551E+02  0.00000000000E+00 0.  1.
         25    2    1    2    0    0 -0.48195426309E+02  0.93580142493E+01  0.61995985067E+03  0.63433967145E+03  0.12500492307E+03 0.  0.
         23    2    1    2    0    0  0.48195426309E+02 -0.93580142493E+01  0.17175798835E+03  0.20066906667E+03  0.91416060993E+02 0.  0.
          5    1    4    4  502    0  0.33107397463E+02  0.36739922744E+02  0.11843680649E+03  0.12843398624E+03  0.47000000000E+01 0. -1.
         -5    1    3    3    0  503 -0.20068408466E+01 -0.50826710648E+02  0.15481229847E+03  0.16302245147E+03  0.47000000000E+01 0. -1.
          5    1    3    3  503    0 -0.46188585463E+02  0.60184724898E+02  0.46514755220E+03  0.47131721998E+03  0.47000000000E+01 0. -1.
         -5    1    4    4    0  502  0.15088028846E+02 -0.46097936993E+02  0.53321181863E+02  0.72235080430E+02  0.47000000000E+01 0.  1.
<mgrwt>
<rscale>  0 0.12591319E+03</rscale>
<asrwt>0</asrwt>
<pdfrwt beam="1">  1        1 0.12513279E+00 0.13430042E+03</pdfrwt>
<pdfrwt beam="2">  1       -1 0.33300698E-02 0.13430042E+03</pdfrwt>
<totfact> 0.70086915E+03</totfact>
</mgrwt>
</event>
<event>
 8    1  0.3551276E-004  0.1471241E+03  0.7546771E-02  0.1214488E+00
          3   -1    0    0  501    0  0.00000000000E+00  0.00000000000E+00  0.18483317373E+03  0.18483317373E+03  0.00000000000E+00 0. -1.
         -3   -1    0    0    0  501 -0.00000000000E+00 -0.00000000000E+00 -0.10740617817E+03  0.10740617817E+03  0.00000000000E+00 0.  1.
         25    2    1    2    0    0 -0.42209580788E+02 -0.65078793378E+02  0.92181794237E+02  0.17361731639E+03  0.12501436439E+03 0.  0.
         23    2    1    2    0    0  0.42209580788E+02  0.65078793378E+02 -0.14754798672E+02  0.11862203550E+03  0.88524489070E+02 0.  0.
          5    1    4    4  502    0  0.23762738861E+02  0.30395923619E+02  0.36875078753E+02  0.53576500108E+02  0.47000000000E+01 0. -1.
         -5    1    3    3    0  503  0.25648603101E+02  0.10548918700E+02  0.61089316806E+02  0.67254183175E+02  0.47000000000E+01 0.  1.
          5    1    3    3  503    0 -0.67858183889E+02 -0.75627712078E+02  0.31092477431E+02  0.10636313322E+03  0.47000000000E+01 0.  1.
         -5    1    4    4    0  502  0.18446841927E+02  0.34682869759E+02 -0.51629877425E+02  0.65045535394E+02  0.47000000000E+01 0.  1.
<mgrwt>
<rscale>  0 0.13914181E+03</rscale>
<asrwt>0</asrwt>
<pdfrwt beam="1">  1        3 0.28435873E-01 0.14712406E+03</pdfrwt>
<pdfrwt beam="2">  1       -3 0.16524027E-01 0.14712406E+03</pdfrwt>
<totfact> 0.87011349E+02</totfact>
</mgrwt>
</event>
<event>
 8    1  0.3551276E-004  0.1364422E+03  0.7546771E-02  0.1231821E+00
          2   -1    0    0  501    0  0.00000000000E+00  0.00000000000E+00  0.40614219756E+03  0.40614219756E+03  0.00000000000E+00 0. -1.
         -2   -1    0    0    0  501 -0.00000000000E+00 -0.00000000000E+00 -0.35403410440E+02  0.35403410440E+02  0.00000000000E+00 0.  1.
         25    2    1    2    0    0  0.22905429185E+02 -0.49654019316E+02  0.19542892095E+03  0.23834623633E+03  0.12500513954E+03 0.  0.
         23    2    1    2    0    0 -0.22905429185E+02  0.49654019316E+02  0.17530986617E+03  0.20319937167E+03  0.86984223561E+02 0.  0.
          5    1    3    3  502    0  0.56019281407E+02  0.16188741611E+02  0.58271037482E+02  0.82570206815E+02  0.47000000000E+01 0.  1.
         -5    1    4    4    0  503  0.18723117335E+02 -0.79482294319E+01  0.98965782505E+01  0.23103284072E+02  0.47000000000E+01 0.  1.
          5    1    4    4  503    0 -0.41628546520E+02  0.57602248748E+02  0.16541328792E+03  0.18009608760E+03  0.47000000000E+01 0. -1.
         -5    1    3    3    0  502 -0.33113852222E+02 -0.65842760927E+02  0.13715788346E+03  0.15577602952E+03  0.47000000000E+01 0.  1.
<mgrwt>
<rscale>  0 0.12710163E+03</rscale>
<asrwt>0</asrwt>
<pdfrwt beam="1">  1        2 0.62483412E-01 0.13644217E+03</pdfrwt>
<pdfrwt beam="2">  1       -2 0.54466788E-02 0.13644217E+03</pdfrwt>
<totfact> 0.12752936E+04</totfact>
</mgrwt>
</event>
<event>
 8    1  0.3551276E-004  0.1251588E+03  0.7546771E-02  0.1250452E+00
         -1   -1    0    0    0  501 -0.00000000000E+00  0.00000000000E+00  0.47377320651E+02  0.47377320651E+02  0.00000000000E+00 0.  1.
          1   -1    0    0  501    0  0.00000000000E+00 -0.00000000000E+00 -0.25541802986E+03  0.25541802986E+03  0.00000000000E+00 0. -1.
         25    2    1    2    0    0 -0.37796783965E+01  0.51175610395E+01 -0.92809469602E+02  0.15581502613E+03  0.12499699724E+03 0.  0.
         23    2    1    2    0    0  0.37796783965E+01 -0.51175610395E+01 -0.11523123961E+03  0.14698032438E+03  0.91019238488E+02 0.  0.
          5    1    4    4  502    0  0.27351987144E+02  0.20332208066E+02 -0.10502535465E+03  0.11051671821E+03  0.47000000000E+01 0. -1.
         -5    1    3    3    0  503 -0.47528643450E+02 -0.34559542134E+02 -0.71915652087E+02  0.92990778660E+02  0.47000000000E+01 0. -1.
          5    1    3    3  503    0  0.43748965054E+02  0.39677103174E+02 -0.20893817515E+02  0.62824247468E+02  0.47000000000E+01 0. -1.
         -5    1    4    4    0  502 -0.23572308747E+02 -0.25449769106E+02 -0.10205884959E+02  0.36463606171E+02  0.47000000000E+01 0.  1.
<mgrwt>
<rscale>  0 0.11564954E+03</rscale>
<asrwt>0</asrwt>
<pdfrwt beam="1">  1        1 0.39295080E-01 0.12515880E+03</pdfrwt>
<pdfrwt beam="2">  1       -1 0.72888188E-02 0.12515880E+03</pdfrwt>
<totfact> 0.10015386E+04</totfact>
</mgrwt>
</event>
<event>
 8    1  0.3551276E-004  0.1289727E+03  0.7546771E-02  0.1243716E+00
         -3   -1    0    0    0  501 -0.00000000000E+00  0.00000000000E+00  0.23291662147E+02  0.23291662147E+02  0.00000000000E+00 0.  1.
          3   -1    0    0  501    0  0.00000000000E+00 -0.00000000000E+00 -0.57103615736E+03  0.57103615736E+03  0.00000000000E+00 0. -1.
         25    2    1    2    0    0 -0.30841963639E+02  0.73470812366E+01 -0.24474578540E+03  0.27664859543E+03  0.12501495735E+03 0.  0.
         23    2    1    2    0    0  0.30841963639E+02 -0.73470812366E+01 -0.30299870982E+03  0.31767922408E+03  0.90037019812E+02 0.  0.
          5    1    4    4  502    0  0.29656472969E+02  0.38767513860E+02 -0.15050990868E+03  0.15829639645E+03  0.47000000000E+01 0. -1.
         -5    1    3    3    0  503  0.43896074734E+02  0.12388727924E+02 -0.14329398299E+03  0.15045132608E+03  0.47000000000E+01 0.  1.
          5    1    3    3  503    0 -0.74738038373E+02 -0.50416466872E+01 -0.10145180241E+03  0.12619726936E+03  0.47000000000E+01 0.  1.
         -5    1    4    4    0  502  0.11854906699E+01 -0.46114595096E+02 -0.15248880114E+03  0.15938282762E+03  0.47000000000E+01 0.  1.
<mgrwt>
<rscale>  0 0.11962561E+03</rscale>
<asrwt>0</asrwt>
<pdfrwt beam="1">  1        3 0.87851704E-01 0.12897266E+03</pdfrwt>
<pdfrwt beam="2">  1       -3 0.35833331E-02 0.12897266E+03</pdfrwt>
<totfact> 0.10723482E+03</totfact>
</mgrwt>
</event>
<event>
 8    1  0.3551276E-004  0.1375149E+03  0.7546771E-02  0.1230546E+00
          2   -1    0    0  501    0  0.00000000000E+00  0.00000000000E+00  0.45746941497E+03  0.45746941497E+03  0.00000000000E+00 0.  1.
         -2   -1    0    0    0  501 -0.00000000000E+00 -0.00000000000E+00 -0.31671128361E+02  0.31671128361E+02  0.00000000000E+00 0. -1.
         25    2    1    2    0    0  0.43791082784E+02 -0.36983172642E+02  0.25302547995E+03  0.28797956113E+03  0.12499968054E+03 0.  0.
         23    2    1    2    0    0 -0.43791082784E+02  0.36983172642E+02  0.17277280666E+03  0.20116098221E+03  0.85614742012E+02 0.  0.
          5    1    3    3  502    0 -0.32734425128E+02 -0.45700211145E+02  0.74135474573E+02  0.93156913202E+02  0.47000000000E+01 0. -1.
         -5    1    4    4    0  503 -0.81688997464E+01  0.56733217070E+02  0.12870154991E+03  0.14096654848E+03  0.47000000000E+01 0.  1.
          5    1    4    4  503    0 -0.35622183038E+02 -0.19750044429E+02  0.44071256753E+02  0.60194433722E+02  0.47000000000E+01 0. -1.
         -5    1    3    3    0  502  0.76525507913E+02  0.87170385034E+01  0.17889000538E+03  0.19482264793E+03  0.47000000000E+01 0. -1.
<mgrwt>
<rscale>  0 0.12793923E+03</rscale>
<asrwt>0</asrwt>
<pdfrwt beam="1">  1        2 0.70379905E-01 0.13751485E+03</pdfrwt>
<pdfrwt beam="2">  1       -2 0.48724816E-02 0.13751485E+03</pdfrwt>
<totfact> 0.13273293E+04</totfact>
</mgrwt>
</event>
<event>
 8    1  0.3551276E-004  0.1285038E+03  0.7546771E-02  0.1242730E+00
          2   -1    0    0  501    0  0.00000000000E+00  0.00000000000E+00  0.31083889733E+03  0.31083889733E+03  0.00000000000E+00 0.  1.
         -2   -1    0    0    0  501 -0.00000000000E+00 -0.00000000000E+00 -0.51666270399E+02  0.51666270399E+02  0.00000000000E+00 0. -1.
         25    2    1    2    0    0  0.17417034386E+02  0.24160621896E+02  0.63220373145E+02  0.14321323420E+03  0.12500450445E+03 0.  0.
         23    2    1    2    0    0 -0.17417034386E+02 -0.24160621896E+02  0.19595225378E+03  0.21929193352E+03  0.93832710759E+02 0.  0.
          5    1    3    3  502    0  0.68795216870E+02 -0.51829541404E+01  0.33965533528E+02  0.77041497556E+02  0.47000000000E+01 0. -1.
         -5    1    3    3    0  502 -0.51378182484E+02  0.29343576037E+02  0.29254839617E+02  0.66171736648E+02  0.47000000000E+01 0. -1.
          5    1    4    4  503    0 -0.17369478651E+00 -0.53253038553E+02  0.66032831251E+02  0.84960820900E+02  0.47000000000E+01 0. -1.
         -5    1    4    4    0  503 -0.17243339599E+02  0.29092416657E+02  0.12991942253E+03  0.13433111262E+03  0.47000000000E+01 0.  1.
<mgrwt>
<rscale>  0 0.12022275E+03</rscale>
<asrwt>0</asrwt>
<pdfrwt beam="1">  1        2 0.47821368E-01 0.12850375E+03</pdfrwt>
<pdfrwt beam="2">  1       -2 0.79486572E-02 0.12850375E+03</pdfrwt>
<totfact> 0.94805533E+03</totfact>
</mgrwt>
</event>
<event>
 8    1  0.3551276E-004  0.1299128E+03  0.7546771E-02  0.1242324E+00
         -1   -1    0    0    0  501 -0.00000000000E+00  0.00000000000E+00  0.90990214343E+02  0.90990214343E+02  0.00000000000E+00 0.  1.
          1   -1    0    0  501    0  0.00000000000E+00 -0.00000000000E+00 -0.16532298763E+03  0.16532298763E+03  0.00000000000E+00 0. -1.
         25    2    1    2    0    0 -0.10807511742E+02  0.33684059665E+02  0.74864270346E+01  0.13012835422E+03  0.12500369513E+03 0.  0.
         23    2    1    2    0    0  0.10807511742E+02 -0.33684059665E+02 -0.81819200324E+02  0.12618484776E+03  0.89313022992E+02 0.  0.
          5    1    3    3  502    0 -0.28270984419E+02  0.58553265504E+02 -0.37824119597E+02  0.75369008780E+02  0.47000000000E+01 0. -1.
         -5    1    4    4    0  503  0.31687684876E+02 -0.26024882456E+02 -0.71074081959E-02  0.41273404635E+02  0.47000000000E+01 0.  1.
          5    1    4    4  503    0 -0.20880173134E+02 -0.76591772091E+01 -0.81812092916E+02  0.84911443121E+02  0.47000000000E+01 0. -1.
         -5    1    3    3    0  502  0.17463472677E+02 -0.24869205839E+02  0.45310546632E+02  0.54759345440E+02  0.47000000000E+01 0. -1.
<mgrwt>
<rscale>  0 0.12046998E+03</rscale>
<asrwt>0</asrwt>
<pdfrwt beam="1">  1        1 0.25434305E-01 0.12991282E+03</pdfrwt>
<pdfrwt beam="2">  1       -1 0.13998495E-01 0.12991282E+03</pdfrwt>
<totfact> 0.63649968E+03</totfact>
</mgrwt>
</event>
<event>
 8    1  0.3551276E-004  0.1880965E+03  0.7546771E-02  0.1164257E+00
          2   -1    0    0  501    0  0.00000000000E+00  0.00000000000E+00  0.13201788422E+04  0.13201788422E+04  0.00000000000E+00 0. -1.
         -2   -1    0    0    0  501 -0.00000000000E+00 -0.00000000000E+00 -0.24461956980E+02  0.24461956980E+02  0.00000000000E+00 0.  1.
         25    2    1    2    0    0  0.13992379234E+03  0.13207016560E+02  0.65915325111E+03  0.68546575685E+03  0.12500880934E+03 0.  0.
         23    2    1    2    0    0 -0.13992379234E+03 -0.13207016560E+02  0.63656363412E+03  0.65917504234E+03  0.97700477054E+02 0.  0.
          5    1    3    3  502    0  0.46050183887E+02 -0.21338882496E+02  0.45736466332E+03  0.46019614578E+03  0.47000000000E+01 0.  1.
         -5    1    3    3    0  502  0.93873608452E+02  0.34545899056E+02  0.20178858779E+03  0.22526961106E+03  0.47000000000E+01 0.  1.
          5    1    4    4  503    0 -0.62748943527E+02 -0.51038040061E+02  0.38051899391E+03  0.38904897657E+03  0.47000000000E+01 0. -1.
         -5    1    4    4    0  503 -0.77174848811E+02  0.37831023501E+02  0.25604464021E+03  0.27012606577E+03  0.47000000000E+01 0.  1.
<mgrwt>
<rscale>  0 0.18371354E+03</rscale>
<asrwt>0</asrwt>
<pdfrwt beam="1">  1        2 0.20310438E+00 0.18809651E+03</pdfrwt>
<pdfrwt beam="2">  1       -2 0.37633790E-02 0.18809651E+03</pdfrwt>
<totfact> 0.51081727E+03</totfact>
</mgrwt>
</event>
<event>
 8    1  0.3551276E-004  0.2147663E+03  0.7546771E-02  0.1141385E+00
         -3   -1    0    0    0  501 -0.00000000000E+00  0.00000000000E+00  0.31579348183E+03  0.31579348183E+03  0.00000000000E+00 0.  1.
          3   -1    0    0  501    0  0.00000000000E+00 -0.00000000000E+00 -0.14465090283E+03  0.14465090283E+03  0.00000000000E+00 0. -1.
         25    2    1    2    0    0  0.26645156438E+02  0.17259209283E+03  0.15035885891E+03  0.26216858840E+03  0.12500634952E+03 0.  0.
         23    2    1    2    0    0 -0.26645156438E+02 -0.17259209283E+03  0.20783720102E+02  0.19827579626E+03  0.91560545498E+02 0.  0.
          5    1    3    3  502    0  0.57246952914E+02  0.16104437391E+03  0.89673043120E+02  0.19306954356E+03  0.47000000000E+01 0.  1.
         -5    1    4    4    0  503 -0.49774296254E+02 -0.14193203608E+03  0.39085699542E+02  0.15547335894E+03  0.47000000000E+01 0.  1.
          5    1    4    4  503    0  0.23129139817E+02 -0.30660056757E+02 -0.18301979440E+02  0.42802437319E+02  0.47000000000E+01 0. -1.
         -5    1    3    3    0  502 -0.30601796477E+02  0.11547718921E+02  0.60685815788E+02  0.69099044839E+02  0.47000000000E+01 0.  1.
<mgrwt>
<rscale>  0 0.21022884E+03</rscale>
<asrwt>0</asrwt>
<pdfrwt beam="1">  1        3 0.22253985E-01 0.21476634E+03</pdfrwt>
<pdfrwt beam="2">  1       -3 0.48583612E-01 0.21476634E+03</pdfrwt>
<totfact> 0.19304247E+02</totfact>
</mgrwt>
</event>
<event>
 8    1  0.3551276E-004  0.1457271E+03  0.7546771E-02  0.1215790E+00
         -3   -1    0    0    0  501 -0.00000000000E+00  0.00000000000E+00  0.81590363164E+02  0.81590363164E+02  0.00000000000E+00 0.  1.
          3   -1    0    0  501    0  0.00000000000E+00 -0.00000000000E+00 -0.28237440491E+03  0.28237440491E+03  0.00000000000E+00 0. -1.
         25    2    1    2    0    0 -0.26353406925E+02 -0.70123982042E+02 -0.19832965938E+03  0.24611183596E+03  0.12499802836E+03 0.  0.
         23    2    1    2    0    0  0.26353406925E+02  0.70123982042E+02 -0.24543823601E+01  0.11785293211E+03  0.90947318272E+02 0.  0.
          5    1    3    3  502    0 -0.65696854481E+02 -0.44643386465E+02 -0.17766635695E+03  0.19467031883E+03  0.47000000000E+01 0.  1.
         -5    1    4    4    0  503  0.22252472372E+02 -0.17341733963E+02  0.75927883298E+01  0.29591361884E+02  0.47000000000E+01 0.  1.
          5    1    4    4  503    0  0.41009345530E+01  0.87465716005E+02 -0.10047170690E+02  0.88261570229E+02  0.47000000000E+01 0. -1.
         -5    1    3    3    0  502  0.39343447556E+02 -0.25480595577E+02 -0.20663302436E+02  0.51441517125E+02  0.47000000000E+01 0.  1.
<mgrwt>
<rscale>  0 0.13818686E+03</rscale>
<asrwt>0</asrwt>
<pdfrwt beam="1">  1        3 0.43442216E-01 0.14572708E+03</pdfrwt>
<pdfrwt beam="2">  1       -3 0.12552364E-01 0.14572708E+03</pdfrwt>
<totfact> 0.62261174E+02</totfact>
</mgrwt>
</event>
<event>
 8    1  0.3551276E-004  0.1318859E+03  0.7546771E-02  0.1237047E+00
         -1   -1    0    0    0  501 -0.00000000000E+00  0.00000000000E+00  0.32084074337E+02  0.32084074337E+02  0.00000000000E+00 0.  1.
          1   -1    0    0  501    0  0.00000000000E+00 -0.00000000000E+00 -0.48793421973E+03  0.48793421973E+03  0.00000000000E+00 0. -1.
         25    2    1    2    0    0 -0.34852296100E+02  0.23559905370E+02 -0.34444215121E+03  0.36882824490E+03  0.12499650802E+03 0.  0.
         23    2    1    2    0    0  0.34852296100E+02 -0.23559905370E+02 -0.11140799418E+03  0.15119004917E+03  0.93150083821E+02 0.  0.
          5    1    4    4  502    0  0.53279257268E+02 -0.92191654319E+01 -0.11494141020E+03  0.12711132934E+03  0.47000000000E+01 0. -1.
         -5    1    4    4    0  502 -0.18426961167E+02 -0.14340739939E+02  0.35334160254E+01  0.24078719830E+02  0.47000000000E+01 0.  1.
          5    1    3    3  503    0 -0.26905433395E+02 -0.45499483098E+02 -0.85105221963E+02  0.10029503534E+03  0.47000000000E+01 0.  1.
         -5    1    3    3    0  503 -0.79468627050E+01  0.69059388468E+02 -0.25933692925E+03  0.26853320956E+03  0.47000000000E+01 0.  1.
<mgrwt>
<rscale>  0 0.12374310E+03</rscale>
<asrwt>0</asrwt>
<pdfrwt beam="1">  1        1 0.75066803E-01 0.13188585E+03</pdfrwt>
<pdfrwt beam="2">  1       -1 0.49360115E-02 0.13188585E+03</pdfrwt>
<totfact> 0.79865801E+03</totfact>
</mgrwt>
</event>
<event>
 8    1  0.3551276E-004  0.1262035E+03  0.7546771E-02  0.1248781E+00
          1   -1    0    0  501    0  0.00000000000E+00  0.00000000000E+00  0.16766889817E+03  0.16766889817E+03  0.00000000000E+00 0. -1.
         -1   -1    0    0    0  501 -0.00000000000E+00 -0.00000000000E+00 -0.71758521429E+02  0.71758521429E+02  0.00000000000E+00 0.  1.
         25    2    1    2    0    0 -0.83117937971E+01 -0.15291671404E+02  0.43252720965E+02  0.13340964431E+03  0.12499765675E+03 0.  0.
         23    2    1    2    0    0  0.83117937971E+01  0.15291671404E+02  0.52657655780E+02  0.10601777529E+03  0.90354960217E+02 0.  0.
          5    1    3    3  502    0  0.45377706612E+02 -0.30115327465E+02 -0.10723780961E+02  0.55706002224E+02  0.47000000000E+01 0. -1.
         -5    1    4    4    0  503  0.62707196262E+01 -0.34959719964E+02  0.42905620450E+01  0.36083276837E+02  0.47000000000E+01 0.  1.
          5    1    4    4  503    0  0.20410741709E+01  0.50251391368E+02  0.48367093735E+02  0.69934498458E+02  0.47000000000E+01 0. -1.
         -5    1    3    3    0  502 -0.53689500409E+02  0.14823656061E+02  0.53976501926E+02  0.77703642085E+02  0.47000000000E+01 0. -1.
<mgrwt>
<rscale>  0 0.11661905E+03</rscale>
<asrwt>0</asrwt>
<pdfrwt beam="1">  1        1 0.25795215E-01 0.12620355E+03</pdfrwt>
<pdfrwt beam="2">  1       -1 0.11039773E-01 0.12620355E+03</pdfrwt>
<totfact> 0.90042619E+03</totfact>
</mgrwt>
</event>
<event>
 8    1  0.3551276E-004  0.1951541E+03  0.7546771E-02  0.1158509E+00
         -2   -1    0    0    0  501 -0.00000000000E+00  0.00000000000E+00  0.27694236396E+02  0.27694236396E+02  0.00000000000E+00 0.  1.
          2   -1    0    0  501    0  0.00000000000E+00 -0.00000000000E+00 -0.13025951316E+04  0.13025951316E+04  0.00000000000E+00 0. -1.
         25    2    1    2    0    0 -0.10814076474E+02 -0.14947570184E+03 -0.52206067534E+03  0.55734411238E+03  0.12500072469E+03 0.  0.
         23    2    1    2    0    0  0.10814076474E+02  0.14947570184E+03 -0.75284021990E+03  0.77294525565E+03  0.90642384403E+02 0.  0.
          5    1    3    3  502    0  0.41018882222E+02 -0.71617133603E+02 -0.12849661455E+03  0.15279081280E+03  0.47000000000E+01 0. -1.
         -5    1    3    3    0  502 -0.51832958696E+02 -0.77858568240E+02 -0.39356406079E+03  0.40455329958E+03  0.47000000000E+01 0. -1.
          5    1    4    4  503    0  0.48040008941E+02  0.11112277889E+03 -0.54333435683E+03  0.55667802881E+03  0.47000000000E+01 0. -1.
         -5    1    4    4    0  503 -0.37225932467E+02  0.38352922953E+02 -0.20950586307E+03  0.21626722684E+03  0.47000000000E+01 0.  1.
<mgrwt>
<rscale>  0 0.18994725E+03</rscale>
<asrwt>0</asrwt>
<pdfrwt beam="1">  1        2 0.20039924E+00 0.19515407E+03</pdfrwt>
<pdfrwt beam="2">  1       -2 0.42606521E-02 0.19515407E+03</pdfrwt>
<totfact> 0.43395217E+03</totfact>
</mgrwt>
</event>
<event>
 8    1  0.3551276E-004  0.1463574E+03  0.7546771E-02  0.1214418E+00
         -1   -1    0    0    0  501 -0.00000000000E+00  0.00000000000E+00  0.71773275751E+02  0.71773275751E+02  0.00000000000E+00 0.  1.
          1   -1    0    0  501    0  0.00000000000E+00 -0.00000000000E+00 -0.34201759847E+03  0.34201759847E+03  0.00000000000E+00 0. -1.
         25    2    1    2    0    0 -0.51448031538E+02 -0.56099797756E+02 -0.25373437273E+03  0.29291914992E+03  0.12500563678E+03 0.  0.
         23    2    1    2    0    0  0.51448031538E+02  0.56099797756E+02 -0.16509949984E+02  0.12087172430E+03  0.92430016925E+02 0.  0.
          5    1    4    4  502    0 -0.14964065034E+02  0.29387118553E+02 -0.33401342943E+02  0.47172721880E+02  0.47000000000E+01 0. -1.
         -5    1    3    3    0  503  0.23238515937E+02 -0.60470524029E+01 -0.84565840624E+00  0.24482659249E+02  0.47000000000E+01 0. -1.
          5    1    3    3  503    0 -0.74686547475E+02 -0.50052745353E+02 -0.25288871433E+03  0.26843649067E+03  0.47000000000E+01 0. -1.
         -5    1    4    4    0  502  0.66412096572E+02  0.26712679203E+02  0.16891392958E+02  0.73699002417E+02  0.47000000000E+01 0.  1.
<mgrwt>
<rscale>  0 0.13919379E+03</rscale>
<asrwt>0</asrwt>
<pdfrwt beam="1">  1        1 0.52618091E-01 0.14635743E+03</pdfrwt>
<pdfrwt beam="2">  1       -1 0.11042043E-01 0.14635743E+03</pdfrwt>
<totfact> 0.37513676E+03</totfact>
</mgrwt>
</event>
<event>
 8    1  0.3551276E-004  0.1623484E+03  0.7546771E-02  0.1193383E+00
         -1   -1    0    0    0  501 -0.00000000000E+00  0.00000000000E+00  0.61137910046E+03  0.61137910046E+03  0.00000000000E+00 0.  1.
          1   -1    0    0  501    0  0.00000000000E+00 -0.00000000000E+00 -0.44457933378E+02  0.44457933378E+02  0.00000000000E+00 0. -1.
         25    2    1    2    0    0 -0.74408042625E+02  0.72084586639E+02  0.43713004089E+03  0.46630426656E+03  0.12499700768E+03 0.  0.
         23    2    1    2    0    0  0.74408042625E+02 -0.72084586639E+02  0.12979112619E+03  0.18953276728E+03  0.91346532471E+02 0.  0.
          5    1    3    3  502    0 -0.47950928786E+01  0.72416590097E+02  0.11036283138E+03  0.13217110118E+03  0.47000000000E+01 0.  1.
         -5    1    4    4    0  503  0.83150406269E+02 -0.33957588343E+02  0.56187796572E+02  0.10604841513E+03  0.47000000000E+01 0.  1.
          5    1    4    4  503    0 -0.87423636442E+01 -0.38126998296E+02  0.73603329623E+02  0.83484352143E+02  0.47000000000E+01 0. -1.
         -5    1    3    3    0  502 -0.69612949746E+02 -0.33200345775E+00  0.32676720951E+03  0.33413316538E+03  0.47000000000E+01 0.  1.
<mgrwt>
<rscale>  0 0.15591918E+03</rscale>
<asrwt>0</asrwt>
<pdfrwt beam="1">  1        1 0.68396825E-02 0.16234838E+03</pdfrwt>
<pdfrwt beam="2">  1       -1 0.94058317E-01 0.16234838E+03</pdfrwt>
<totfact> 0.12272498E+03</totfact>
</mgrwt>
</event>
<event>
 8    1  0.3551276E-004  0.1408433E+03  0.7546771E-02  0.1223536E+00
          2   -1    0    0  501    0  0.00000000000E+00  0.00000000000E+00  0.40942501349E+02  0.40942501349E+02  0.00000000000E+00 0. -1.
         -2   -1    0    0    0  501 -0.00000000000E+00 -0.00000000000E+00 -0.44816434042E+03  0.44816434042E+03  0.00000000000E+00 0.  1.
         25    2    1    2    0    0 -0.12050598393E+02 -0.63732164083E+02 -0.31430019650E+03  0.34441466517E+03  0.12501936812E+03 0.  0.
         23    2    1    2    0    0  0.12050598393E+02  0.63732164083E+02 -0.92921642565E+02  0.14469217659E+03  0.89968820432E+02 0.  0.
          5    1    4    4  502    0 -0.14035345677E+02  0.41151767263E+02  0.18035940782E+01  0.43769873529E+02  0.47000000000E+01 0. -1.
         -5    1    4    4    0  502  0.26085944071E+02  0.22580396820E+02 -0.94725236643E+02  0.10092230306E+03  0.47000000000E+01 0.  1.
          5    1    3    3  503    0 -0.23843751039E+02  0.31675534687E+02 -0.13669763719E+03  0.14240856005E+03  0.47000000000E+01 0.  1.
         -5    1    3    3    0  503  0.11793152646E+02 -0.95407698770E+02 -0.17760255931E+03  0.20200610513E+03  0.47000000000E+01 0.  1.
<mgrwt>
<rscale>  0 0.13267727E+03</rscale>
<asrwt>0</asrwt>
<pdfrwt beam="1">  1        2 0.62988461E-02 0.14084335E+03</pdfrwt>
<pdfrwt beam="2">  1       -2 0.68948363E-01 0.14084335E+03</pdfrwt>
<totfact> 0.22008728E+03</totfact>
</mgrwt>
</event>
<event>
 8    1  0.3551276E-004  0.2026418E+03  0.7546771E-02  0.1152155E+00
         -2   -1    0    0    0  501 -0.00000000000E+00  0.00000000000E+00  0.81060054394E+02  0.81060054394E+02  0.00000000000E+00 0.  1.
          2   -1    0    0  501    0  0.00000000000E+00 -0.00000000000E+00 -0.52720301572E+03  0.52720301572E+03  0.00000000000E+00 0. -1.
         25    2    1    2    0    0  0.12001827167E+03 -0.10505410887E+03 -0.12148842179E+03  0.23626920640E+03  0.12499179949E+03 0.  0.
         23    2    1    2    0    0 -0.12001827167E+03  0.10505410887E+03 -0.32465453954E+03  0.37199386371E+03  0.86822308615E+02 0.  0.
          5    1    3    3  502    0  0.12525665965E+01  0.25152394001E+02 -0.90617164807E+01  0.27173821090E+02  0.47000000000E+01 0.  1.
         -5    1    4    4    0  503 -0.10006255495E+03  0.11784709344E+03 -0.25471497900E+03  0.29799708533E+03  0.47000000000E+01 0.  1.
          5    1    4    4  503    0 -0.19955716718E+02 -0.12792984566E+02 -0.69939560533E+02  0.73996778385E+02  0.47000000000E+01 0. -1.
         -5    1    3    3    0  502  0.11876570507E+03 -0.13020650288E+03 -0.11242670531E+03  0.20909538531E+03  0.47000000000E+01 0.  1.
<mgrwt>
<rscale>  0 0.19716338E+03</rscale>
<asrwt>0</asrwt>
<pdfrwt beam="1">  1        2 0.81108152E-01 0.20264181E+03</pdfrwt>
<pdfrwt beam="2">  1       -2 0.12470778E-01 0.20264181E+03</pdfrwt>
<totfact> 0.26923165E+03</totfact>
</mgrwt>
</event>
<event>
 8    1  0.3551276E-004  0.1486530E+03  0.7546771E-02  0.1211755E+00
         -2   -1    0    0    0  501 -0.00000000000E+00  0.00000000000E+00  0.34496132133E+02  0.34496132133E+02  0.00000000000E+00 0.  1.
          2   -1    0    0  501    0  0.00000000000E+00 -0.00000000000E+00 -0.90631114015E+03  0.90631114015E+03  0.00000000000E+00 0. -1.
         25    2    1    2    0    0 -0.45184746660E+02  0.66563301013E+02 -0.76547392526E+03  0.77977434681E+03  0.12500146930E+03 0.  0.
         23    2    1    2    0    0  0.45184746660E+02 -0.66563301013E+02 -0.10634108276E+03  0.16103292547E+03  0.90282018310E+02 0.  0.
          5    1    3    3  502    0  0.38130218950E+02  0.44866866548E+02 -0.39548167634E+03  0.39986847291E+03  0.47000000000E+01 0. -1.
         -5    1    4    4    0  503  0.46370408350E+02 -0.36132308115E+02 -0.99126219194E+01  0.59800573021E+02  0.47000000000E+01 0.  1.
          5    1    4    4  503    0 -0.11856616901E+01 -0.30430992898E+02 -0.96428460837E+02  0.10123235245E+03  0.47000000000E+01 0. -1.
         -5    1    3    3    0  502 -0.83314965610E+02  0.21696434465E+02 -0.36999224892E+03  0.37990587390E+03  0.47000000000E+01 0. -1.
<mgrwt>
<rscale>  0 0.14117584E+03</rscale>
<asrwt>0</asrwt>
<pdfrwt beam="1">  1        2 0.13943249E+00 0.14865296E+03</pdfrwt>
<pdfrwt beam="2">  1       -2 0.53070972E-02 0.14865296E+03</pdfrwt>
<totfact> 0.52547610E+03</totfact>
</mgrwt>
</event>
<event>
 8    1  0.3551276E-004  0.2650153E+03  0.7546771E-02  0.1106597E+00
         -1   -1    0    0    0  501 -0.00000000000E+00  0.00000000000E+00  0.33492925171E+02  0.33492925171E+02  0.00000000000E+00 0.  1.
          1   -1    0    0  501    0  0.00000000000E+00 -0.00000000000E+00 -0.22725895521E+04  0.22725895521E+04  0.00000000000E+00 0. -1.
         25    2    1    2    0    0  0.20961557468E+03 -0.10329156118E+03 -0.73067044255E+03  0.77724667370E+03  0.12500104161E+03 0.  0.
         23    2    1    2    0    0 -0.20961557468E+03  0.10329156118E+03 -0.15084261844E+04  0.15288358036E+04  0.85915800626E+02 0.  0.
          5    1    4    4  502    0 -0.15404941655E+03  0.11086371830E+03 -0.12515069079E+04  0.12658252712E+04  0.47000000000E+01 0. -1.
         -5    1    4    4    0  502 -0.55566158128E+02 -0.75721571217E+01 -0.25691927649E+03  0.26301053235E+03  0.47000000000E+01 0.  1.
          5    1    3    3  503    0  0.14143912332E+02 -0.35862384022E+02 -0.26340498623E+03  0.26625258236E+03  0.47000000000E+01 0.  1.
         -5    1    3    3    0  503  0.19547166235E+03 -0.67429177157E+02 -0.46726545631E+03  0.51099409133E+03  0.47000000000E+01 0.  1.
<mgrwt>
<rscale>  0 0.26091126E+03</rscale>
<asrwt>0</asrwt>
<pdfrwt beam="1">  1        1 0.34962938E+00 0.26501528E+03</pdfrwt>
<pdfrwt beam="2">  1       -1 0.51527545E-02 0.26501528E+03</pdfrwt>
<totfact> 0.37717100E+02</totfact>
</mgrwt>
</event>
<event>
 8    1  0.3551276E-004  0.1355293E+03  0.7546771E-02  0.1231367E+00
         -2   -1    0    0    0  501 -0.00000000000E+00  0.00000000000E+00  0.17817421011E+02  0.17817421011E+02  0.00000000000E+00 0.  1.
          2   -1    0    0  501    0  0.00000000000E+00 -0.00000000000E+00 -0.81731831727E+03  0.81731831727E+03  0.00000000000E+00 0. -1.
         25    2    1    2    0    0 -0.22578023166E+02  0.47277716380E+02 -0.45011006263E+03  0.47007155278E+03  0.12499298642E+03 0.  0.
         23    2    1    2    0    0  0.22578023166E+02 -0.47277716380E+02 -0.34939083363E+03  0.36506418550E+03  0.91939954954E+02 0.  0.
          5    1    3    3  502    0  0.36363798866E+02  0.17284308411E+02 -0.33330785027E+03  0.33576373573E+03  0.47000000000E+01 0. -1.
         -5    1    4    4    0  503 -0.19114898731E+02 -0.26312429204E+02 -0.38332593586E+02  0.50489612943E+02  0.47000000000E+01 0.  1.
          5    1    4    4  503    0  0.41692921897E+02 -0.20965287176E+02 -0.31105824004E+03  0.31457457256E+03  0.47000000000E+01 0. -1.
         -5    1    3    3    0  502 -0.58941822032E+02  0.29993407969E+02 -0.11680221236E+03  0.13430781704E+03  0.47000000000E+01 0. -1.
<mgrwt>
<rscale>  0 0.12739930E+03</rscale>
<asrwt>0</asrwt>
<pdfrwt beam="1">  1        2 0.12574125E+00 0.13552932E+03</pdfrwt>
<pdfrwt beam="2">  1       -2 0.27411423E-02 0.13552932E+03</pdfrwt>
<totfact> 0.15930714E+04</totfact>
</mgrwt>
</event>
<event>
 8    1  0.3551276E-004  0.1431305E+03  0.7546771E-02  0.1219198E+00
         -1   -1    0    0    0  501 -0.00000000000E+00  0.00000000000E+00  0.73505043464E+02  0.73505043464E+02  0.00000000000E+00 0.  1.
          1   -1    0    0  501    0  0.00000000000E+00 -0.00000000000E+00 -0.29293004449E+03  0.29293004449E+03  0.00000000000E+00 0. -1.
         25    2    1    2    0    0  0.67876953794E+02 -0.15943819535E+02 -0.20468669867E+03  0.24976585341E+03  0.12499940271E+03 0.  0.
         23    2    1    2    0    0 -0.67876953794E+02  0.15943819535E+02 -0.14738302348E+02  0.11666923454E+03  0.92374273982E+02 0.  0.
          5    1    3    3  502    0  0.74572721562E+02  0.38981707005E+01 -0.42269054322E+02  0.85936310657E+02  0.47000000000E+01 0. -1.
         -5    1    4    4    0  503 -0.20447784355E+02 -0.48856508329E+01  0.37312111535E+02  0.43084395508E+02  0.47000000000E+01 0.  1.
          5    1    4    4  503    0 -0.47429169440E+02  0.20829470368E+02 -0.52050413883E+02  0.73584839029E+02  0.47000000000E+01 0. -1.
         -5    1    3    3    0  502 -0.66957677679E+01 -0.19841990235E+02 -0.16241764435E+03  0.16382954275E+03  0.47000000000E+01 0. -1.
<mgrwt>
<rscale>  0 0.13572658E+03</rscale>
<asrwt>0</asrwt>
<pdfrwt beam="1">  1        1 0.45066161E-01 0.14313049E+03</pdfrwt>
<pdfrwt beam="2">  1       -1 0.11308468E-01 0.14313049E+03</pdfrwt>
<totfact> 0.43794842E+03</totfact>
</mgrwt>
</event>
<event>
 8    1  0.3551276E-004  0.1668983E+03  0.7546771E-02  0.1187517E+00
          1   -1    0    0  501    0  0.00000000000E+00  0.00000000000E+00  0.83049998833E+02  0.83049998833E+02  0.00000000000E+00 0. -1.
         -1   -1    0    0    0  501 -0.00000000000E+00 -0.00000000000E+00 -0.46679659739E+03  0.46679659739E+03  0.00000000000E+00 0.  1.
         25    2    1    2    0    0 -0.61043585363E+02  0.92219830923E+02 -0.32598949451E+02  0.17005211999E+03  0.12499686187E+03 0.  0.
         23    2    1    2    0    0  0.61043585363E+02 -0.92219830923E+02 -0.35114764910E+03  0.37979447623E+03  0.93318573587E+02 0.  0.
          5    1    3    3  502    0 -0.79244186738E+02  0.11314844251E+03 -0.32193907676E+02  0.14191810619E+03  0.47000000000E+01 0. -1.
         -5    1    4    4    0  503  0.17518461077E+02 -0.31775774221E+02 -0.25730155554E+03  0.25988993206E+03  0.47000000000E+01 0.  1.
          5    1    4    4  503    0  0.43525124287E+02 -0.60444056702E+02 -0.93846093565E+02  0.11990454417E+03  0.47000000000E+01 0. -1.
         -5    1    3    3    0  502  0.18200601375E+02 -0.20928611587E+02 -0.40504177523E+00  0.28134013794E+02  0.47000000000E+01 0. -1.
<mgrwt>
<rscale>  0 0.16104929E+03</rscale>
<asrwt>0</asrwt>
<pdfrwt beam="1">  1        1 0.12776923E-01 0.16689827E+03</pdfrwt>
<pdfrwt beam="2">  1       -1 0.71814860E-01 0.16689827E+03</pdfrwt>
<totfact> 0.93195396E+02</totfact>
</mgrwt>
</event>
<event>
 8    1  0.3551276E-004  0.1317818E+03  0.7546771E-02  0.1237883E+00
         -2   -1    0    0    0  501 -0.00000000000E+00  0.00000000000E+00  0.35800521272E+02  0.35800521272E+02  0.00000000000E+00 0.  1.
          2   -1    0    0  501    0  0.00000000000E+00 -0.00000000000E+00 -0.56245956711E+03  0.56245956711E+03  0.00000000000E+00 0. -1.
         25    2    1    2    0    0 -0.28159548812E+02  0.30789646058E+02 -0.45745327032E+03  0.47605663984E+03  0.12500186925E+03 0.  0.
         23    2    1    2    0    0  0.28159548812E+02 -0.30789646058E+02 -0.69205775522E+02  0.12220344854E+03  0.91669411348E+02 0.  0.
          5    1    3    3  502    0 -0.53267070199E+02 -0.11252498587E+02 -0.89747412084E+02  0.10507467567E+03  0.47000000000E+01 0. -1.
         -5    1    4    4    0  503 -0.13898243735E+02  0.25706338955E+02 -0.14867598409E+02  0.33122688959E+02  0.47000000000E+01 0.  1.
          5    1    4    4  503    0  0.42057792546E+02 -0.56495985013E+02 -0.54338177112E+02  0.89080759586E+02  0.47000000000E+01 0. -1.
         -5    1    3    3    0  502  0.25107521387E+02  0.42042144645E+02 -0.36770585823E+03  0.37098196417E+03  0.47000000000E+01 0. -1.
<mgrwt>
<rscale>  0 0.12321651E+03</rscale>
<asrwt>0</asrwt>
<pdfrwt beam="1">  1        2 0.86532242E-01 0.13178175E+03</pdfrwt>
<pdfrwt beam="2">  1       -2 0.55077724E-02 0.13178175E+03</pdfrwt>
<totfact> 0.87670630E+03</totfact>
</mgrwt>
</event>
<event>
 8    1  0.3551276E-004  0.1390268E+03  0.7546771E-02  0.1226285E+00
         -1   -1    0    0    0  501 -0.00000000000E+00  0.00000000000E+00  0.58157684615E+03  0.58157684615E+03  0.00000000000E+00 0.  1.
          1   -1    0    0  501    0  0.00000000000E+00 -0.00000000000E+00 -0.28639988826E+02  0.28639988826E+02  0.00000000000E+00 0. -1.
         25    2    1    2    0    0  0.39351121654E+01 -0.60725031989E+02  0.22315156201E+03  0.26291648036E+03  0.12500176560E+03 0.  0.
         23    2    1    2    0    0 -0.39351121654E+01  0.60725031989E+02  0.32978529531E+03  0.34730035461E+03  0.90311575612E+02 0.  0.
          5    1    3    3  502    0  0.32015164149E+02 -0.91148301947E+02  0.16710805372E+03  0.19308074814E+03  0.47000000000E+01 0.  1.
         -5    1    4    4    0  503 -0.23347567112E+02 -0.10841185714E+02  0.37555737881E+02  0.45772957578E+02  0.47000000000E+01 0. -1.
          5    1    4    4  503    0  0.19412454946E+02  0.71566217703E+02  0.29222955743E+03  0.30152739703E+03  0.47000000000E+01 0.  1.
         -5    1    3    3    0  502 -0.28080051983E+02  0.30423269957E+02  0.56043508287E+02  0.69835732225E+02  0.47000000000E+01 0.  1.
<mgrwt>
<rscale>  0 0.13079190E+03</rscale>
<asrwt>0</asrwt>
<pdfrwt beam="1">  1        1 0.44061526E-02 0.13902682E+03</pdfrwt>
<pdfrwt beam="2">  1       -1 0.89473352E-01 0.13902682E+03</pdfrwt>
<totfact> 0.24745668E+03</totfact>
</mgrwt>
</event>
<event>
 8    1  0.3551276E-004  0.1379784E+03  0.7546771E-02  0.1228553E+00
         -1   -1    0    0    0  501 -0.00000000000E+00  0.00000000000E+00  0.54973634425E+02  0.54973634425E+02  0.00000000000E+00 0.  1.
          1   -1    0    0  501    0  0.00000000000E+00 -0.00000000000E+00 -0.27138203488E+03  0.27138203488E+03  0.00000000000E+00 0. -1.
         25    2    1    2    0    0  0.56836960695E+02  0.13504937723E+02 -0.12000511002E+03  0.18286405442E+03  0.12500085010E+03 0.  0.
         23    2    1    2    0    0 -0.56836960695E+02 -0.13504937723E+02 -0.96403290433E+02  0.14349161488E+03  0.88788657442E+02 0.  0.
          5    1    3    3  502    0  0.29931485786E+02 -0.53893532501E+02 -0.35186311526E+02  0.71137705934E+02  0.47000000000E+01 0. -1.
         -5    1    4    4    0  503  0.63861320237E+01 -0.35796839958E+02 -0.49238512334E+02  0.61389881333E+02  0.47000000000E+01 0.  1.
          5    1    4    4  503    0 -0.63223092718E+02  0.22291902235E+02 -0.47164778099E+02  0.82101733546E+02  0.47000000000E+01 0. -1.
         -5    1    3    3    0  502  0.26905474909E+02  0.67398470225E+02 -0.84818798495E+02  0.11172634849E+03  0.47000000000E+01 0. -1.
<mgrwt>
<rscale>  0 0.12926325E+03</rscale>
<asrwt>0</asrwt>
<pdfrwt beam="1">  1        1 0.41751082E-01 0.13797839E+03</pdfrwt>
<pdfrwt beam="2">  1       -1 0.84574823E-02 0.13797839E+03</pdfrwt>
<totfact> 0.74823275E+03</totfact>
</mgrwt>
</event>
<event>
 8    1  0.3551276E-004  0.1263963E+03  0.7546771E-02  0.1245241E+00
         -2   -1    0    0    0  501 -0.00000000000E+00  0.00000000000E+00  0.20661673919E+02  0.20661673919E+02  0.00000000000E+00 0.  1.
          2   -1    0    0  501    0  0.00000000000E+00 -0.00000000000E+00 -0.66001647035E+03  0.66001647035E+03  0.00000000000E+00 0. -1.
         25    2    1    2    0    0  0.18193151566E+02  0.44008829458E+01 -0.44858631001E+03  0.46605333899E+03  0.12500271488E+03 0.  0.
         23    2    1    2    0    0 -0.18193151566E+02 -0.44008829458E+01 -0.19076848643E+03  0.21462480528E+03  0.96544461742E+02 0.  0.
          5    1    4    4  502    0 -0.42039826706E+02 -0.91971413116E+01 -0.18388531717E+03  0.18891223970E+03  0.47000000000E+01 0. -1.
         -5    1    4    4    0  502  0.23846675141E+02  0.47962583659E+01 -0.68831692545E+01  0.25712565577E+02  0.47000000000E+01 0.  1.
          5    1    3    3  503    0  0.70041709765E+02 -0.11884011692E+02 -0.23029648918E+03  0.24105110199E+03  0.47000000000E+01 0.  1.
         -5    1    3    3    0  503 -0.51848558200E+02  0.16284894638E+02 -0.21828982082E+03  0.22500223700E+03  0.47000000000E+01 0.  1.
<mgrwt>
<rscale>  0 0.11870962E+03</rscale>
<asrwt>0</asrwt>
<pdfrwt beam="1">  1        2 0.10154099E+00 0.12639635E+03</pdfrwt>
<pdfrwt beam="2">  1       -2 0.31787191E-02 0.12639635E+03</pdfrwt>
<totfact> 0.16499020E+04</totfact>
</mgrwt>
</event>
<event>
 8    1  0.3551276E-004  0.1324874E+03  0.7546771E-02  0.1238331E+00
          1   -1    0    0  501    0  0.00000000000E+00  0.00000000000E+00  0.29169144969E+02  0.29169144969E+02  0.00000000000E+00 0. -1.
         -1   -1    0    0    0  501 -0.00000000000E+00 -0.00000000000E+00 -0.45966134799E+03  0.45966134799E+03  0.00000000000E+00 0.  1.
         25    2    1    2    0    0 -0.25999032329E+02  0.35379827986E+02 -0.26803336111E+03  0.29898964301E+03  0.12500096821E+03 0.  0.
         23    2    1    2    0    0  0.25999032329E+02 -0.35379827986E+02 -0.16245884191E+03  0.18984084994E+03  0.87857788963E+02 0.  0.
          5    1    4    4  502    0  0.43543581571E+02 -0.53422627775E+02 -0.93263267805E+02  0.11606096577E+03  0.47000000000E+01 0. -1.
         -5    1    4    4    0  502 -0.17544549242E+02  0.18042799789E+02 -0.69195574106E+02  0.73779884170E+02  0.47000000000E+01 0.  1.
          5    1    3    3  503    0 -0.19580795299E+02  0.75753224806E+02 -0.22987134976E+03  0.24286804247E+03  0.47000000000E+01 0. -1.
         -5    1    3    3    0  503 -0.64182370308E+01 -0.40373396820E+02 -0.38162011344E+02  0.56121600540E+02  0.47000000000E+01 0. -1.
<mgrwt>
<rscale>  0 0.12293576E+03</rscale>
<asrwt>0</asrwt>
<pdfrwt beam="1">  1        1 0.44875608E-02 0.13248745E+03</pdfrwt>
<pdfrwt beam="2">  1       -1 0.70717130E-01 0.13248745E+03</pdfrwt>
<totfact> 0.38932663E+03</totfact>
</mgrwt>
</event>
<event>
 8    1  0.3551276E-004  0.2401314E+03  0.7546771E-02  0.1122499E+00
          2   -1    0    0  501    0  0.00000000000E+00  0.00000000000E+00  0.15279425541E+04  0.15279425541E+04  0.00000000000E+00 0. -1.
         -2   -1    0    0    0  501 -0.00000000000E+00 -0.00000000000E+00 -0.35293872898E+02  0.35293872898E+02  0.00000000000E+00 0.  1.
         25    2    1    2    0    0 -0.16788346394E+02 -0.20434870388E+03  0.80273478964E+03  0.83788199848E+03  0.12499143780E+03 0.  0.
         23    2    1    2    0    0  0.16788346394E+02  0.20434870388E+03  0.68991389154E+03  0.72535442850E+03  0.90097879283E+02 0.  0.
          5    1    3    3  502    0  0.15216019102E+02 -0.20555170981E+03  0.72318474605E+03  0.75199820449E+03  0.47000000000E+01 0.  1.
         -5    1    3    3    0  502 -0.32004365496E+02  0.12030059300E+01  0.79550043591E+02  0.85883793986E+02  0.47000000000E+01 0.  1.
          5    1    4    4  503    0  0.35667513956E+02  0.11721061400E+03  0.50965925762E+03  0.52419953116E+03  0.47000000000E+01 0. -1.
         -5    1    4    4    0  503 -0.18879167562E+02  0.87138089876E+02  0.18025463392E+03  0.20115489734E+03  0.47000000000E+01 0.  1.
<mgrwt>
<rscale>  0 0.23598214E+03</rscale>
<asrwt>0</asrwt>
<pdfrwt beam="1">  1        2 0.23506803E+00 0.24013142E+03</pdfrwt>
<pdfrwt beam="2">  1       -2 0.54298278E-02 0.24013142E+03</pdfrwt>
<totfact> 0.22760499E+03</totfact>
</mgrwt>
</event>
<event>
 8    1  0.3551276E-004  0.1292999E+03  0.7546771E-02  0.1242567E+00
         -1   -1    0    0    0  501 -0.00000000000E+00  0.00000000000E+00  0.16847954904E+03  0.16847954904E+03  0.00000000000E+00 0.  1.
          1   -1    0    0  501    0  0.00000000000E+00 -0.00000000000E+00 -0.10055411311E+03  0.10055411311E+03  0.00000000000E+00 0. -1.
         25    2    1    2    0    0 -0.18125134459E+01 -0.33006030398E+02  0.10363785216E+03  0.16570837293E+03  0.12500310881E+03 0.  0.
         23    2    1    2    0    0  0.18125134459E+01  0.33006030398E+02 -0.35712416226E+02  0.10332528922E+03  0.91148535213E+02 0.  0.
          5    1    4    4  502    0  0.51881168752E+00  0.61992218114E+02 -0.39545180007E+02  0.73683210666E+02  0.47000000000E+01 0. -1.
         -5    1    3    3    0  503  0.35311975618E+02 -0.52088670122E+02  0.11087682123E+02  0.64071771257E+02  0.47000000000E+01 0.  1.
          5    1    3    3  503    0 -0.37124489064E+02  0.19082639724E+02  0.92550170035E+02  0.10163660168E+03  0.47000000000E+01 0.  1.
         -5    1    4    4    0  502  0.12937017584E+01 -0.28986187716E+02  0.38327637818E+01  0.29642078550E+02  0.47000000000E+01 0.  1.
<mgrwt>
<rscale>  0 0.12032167E+03</rscale>
<asrwt>0</asrwt>
<pdfrwt beam="1">  1        1 0.15469864E-01 0.12929989E+03</pdfrwt>
<pdfrwt beam="2">  1       -1 0.25919931E-01 0.12929989E+03</pdfrwt>
<totfact> 0.44704245E+03</totfact>
</mgrwt>
</event>
<event>
 8    1  0.3551276E-004  0.3971430E+03  0.7546771E-02  0.1045566E+00
         -2   -1    0    0    0  501 -0.00000000000E+00  0.00000000000E+00  0.26199519020E+03  0.26199519020E+03  0.00000000000E+00 0.  1.
          2   -1    0    0  501    0  0.00000000000E+00 -0.00000000000E+00 -0.79471601510E+03  0.79471601510E+03  0.00000000000E+00 0. -1.
         25    2    1    2    0    0 -0.35062319641E+03 -0.13842121964E+03 -0.53774246818E+03  0.66849794285E+03  0.12500191038E+03 0.  0.
         23    2    1    2    0    0  0.35062319641E+03  0.13842121964E+03  0.50216432780E+01  0.38821326245E+03  0.92667471792E+02 0.  0.
          5    1    3    3  502    0 -0.14941834800E+03 -0.92547532416E+02 -0.15850262363E+03  0.23671937008E+03  0.47000000000E+01 0. -1.
         -5    1    3    3    0  502 -0.20120484842E+03 -0.45873687224E+02 -0.37923984455E+03  0.43177857277E+03  0.47000000000E+01 0. -1.
          5    1    4    4  503    0  0.16004263620E+03  0.79414489012E+02  0.45863561909E+02  0.18451521015E+03  0.47000000000E+01 0. -1.
         -5    1    4    4    0  503  0.19058056021E+03  0.59006730628E+02 -0.40841918631E+02  0.20369805229E+03  0.47000000000E+01 0.  1.
<mgrwt>
<rscale>  0 0.39488321E+03</rscale>
<asrwt>0</asrwt>
<pdfrwt beam="1">  1        2 0.12226400E+00 0.39714297E+03</pdfrwt>
<pdfrwt beam="2">  1       -2 0.40306953E-01 0.39714297E+03</pdfrwt>
<totfact> 0.20928026E+02</totfact>
</mgrwt>
</event>
<event>
 8    1  0.3551276E-004  0.1642869E+03  0.7546771E-02  0.1191417E+00
          1   -1    0    0  501    0  0.00000000000E+00  0.00000000000E+00  0.25217460870E+03  0.25217460870E+03  0.00000000000E+00 0.  1.
         -1   -1    0    0    0  501 -0.00000000000E+00 -0.00000000000E+00 -0.10139681750E+03  0.10139681750E+03  0.00000000000E+00 0. -1.
         25    2    1    2    0    0  0.82596651436E+02  0.67400411973E+02  0.13662481789E+03  0.21367385025E+03  0.12500060422E+03 0.  0.
         23    2    1    2    0    0 -0.82596651436E+02 -0.67400411973E+02  0.14152973316E+02  0.13989757595E+03  0.89476269144E+02 0.  0.
          5    1    4    4  502    0 -0.80717568943E+02 -0.18096061353E+02 -0.12225446216E+02  0.83751686000E+02  0.47000000000E+01 0. -1.
         -5    1    4    4    0  502 -0.18790824924E+01 -0.49304350620E+02  0.26378419532E+02  0.56145889948E+02  0.47000000000E+01 0.  1.
          5    1    3    3  503    0  0.61329970915E+02  0.18669263103E+02  0.14595923163E+03  0.15948697130E+03  0.47000000000E+01 0. -1.
         -5    1    3    3    0  503  0.21266680521E+02  0.48731148870E+02 -0.93344137369E+01  0.54186878950E+02  0.47000000000E+01 0. -1.
<mgrwt>
<rscale>  0 0.15761451E+03</rscale>
<asrwt>0</asrwt>
<pdfrwt beam="1">  1        1 0.38796094E-01 0.16428686E+03</pdfrwt>
<pdfrwt beam="2">  1       -1 0.15599510E-01 0.16428686E+03</pdfrwt>
<totfact> 0.32159183E+03</totfact>
</mgrwt>
</event>
<event>
 8    1  0.3551276E-004  0.1880129E+03  0.7546771E-02  0.1165472E+00
         -1   -1    0    0    0  501 -0.00000000000E+00  0.00000000000E+00  0.39122420487E+03  0.39122420487E+03  0.00000000000E+00 0.  1.
          1   -1    0    0  501    0  0.00000000000E+00 -0.00000000000E+00 -0.60125553582E+03  0.60125553582E+03  0.00000000000E+00 0. -1.
         25    2    1    2    0    0  0.43634826117E+01  0.14037346541E+03  0.35590594704E+03  0.40251447870E+03  0.12500045063E+03 0.  0.
         23    2    1    2    0    0 -0.43634826117E+01 -0.14037346541E+03 -0.56593727798E+03  0.58996526199E+03  0.89723229848E+02 0.  0.
          5    1    3    3  502    0  0.36723284507E+02  0.48175822406E+02  0.25435079093E+03  0.26150702541E+03  0.47000000000E+01 0.  1.
         -5    1    3    3    0  502 -0.32359801896E+02  0.92197643000E+02  0.10155515610E+03  0.14100745330E+03  0.47000000000E+01 0.  1.
          5    1    4    4  503    0 -0.40422519363E+01 -0.47948559068E+02 -0.37143852106E+03  0.37457184764E+03  0.47000000000E+01 0. -1.
         -5    1    4    4    0  503 -0.32123067537E+00 -0.92424906338E+02 -0.19449875692E+03  0.21539341434E+03  0.47000000000E+01 0.  1.
<mgrwt>
<rscale>  0 0.18242973E+03</rscale>
<asrwt>0</asrwt>
<pdfrwt beam="1">  1        1 0.92500851E-01 0.18801293E+03</pdfrwt>
<pdfrwt beam="2">  1       -1 0.60188340E-01 0.18801293E+03</pdfrwt>
<totfact> 0.10452430E+02</totfact>
</mgrwt>
</event>
<event>
 8    1  0.3551276E-004  0.2499953E+03  0.7546771E-02  0.1115793E+00
         -2   -1    0    0    0  501 -0.00000000000E+00  0.00000000000E+00  0.11001174928E+03  0.11001174928E+03  0.00000000000E+00 0.  1.
          2   -1    0    0  501    0  0.00000000000E+00 -0.00000000000E+00 -0.61442066588E+03  0.61442066588E+03  0.00000000000E+00 0. -1.
         25    2    1    2    0    0 -0.16750124838E+03 -0.13717490958E+03 -0.39001822903E+03  0.46326219798E+03  0.12499608422E+03 0.  0.
         23    2    1    2    0    0  0.16750124838E+03  0.13717490958E+03 -0.11439068757E+03  0.26117021719E+03  0.90835174446E+02 0.  0.
          5    1    3    3  502    0 -0.59006535213E+02 -0.12092325857E+03 -0.26226650553E+03  0.29480504674E+03  0.47000000000E+01 0. -1.
         -5    1    3    3    0  502 -0.10849471317E+03 -0.16251651014E+02 -0.12775172350E+03  0.16845715123E+03  0.47000000000E+01 0. -1.
          5    1    4    4  503    0  0.15625758345E+03  0.89512377927E+02 -0.11157026331E+03  0.21189363332E+03  0.47000000000E+01 0. -1.
         -5    1    4    4    0  503  0.11243664931E+02  0.47662531653E+02 -0.28204242622E+01  0.49276583868E+02  0.47000000000E+01 0.  1.
<mgrwt>
<rscale>  0 0.24610311E+03</rscale>
<asrwt>0</asrwt>
<pdfrwt beam="1">  1        2 0.94526256E-01 0.24999529E+03</pdfrwt>
<pdfrwt beam="2">  1       -2 0.16924885E-01 0.24999529E+03</pdfrwt>
<totfact> 0.13710935E+03</totfact>
</mgrwt>
</event>
<event>
 8    1  0.3551276E-004  0.1461032E+03  0.7546771E-02  0.1214236E+00
          2   -1    0    0  501    0  0.00000000000E+00  0.00000000000E+00  0.39521063045E+03  0.39521063045E+03  0.00000000000E+00 0. -1.
         -2   -1    0    0    0  501 -0.00000000000E+00 -0.00000000000E+00 -0.54254752255E+02  0.54254752255E+02  0.00000000000E+00 0.  1.
         25    2    1    2    0    0  0.70180304986E+02 -0.28212383243E+02  0.91781619707E+02  0.17253988024E+03  0.12499972312E+03 0.  0.
         23    2    1    2    0    0 -0.70180304986E+02  0.28212383243E+02  0.24917425849E+03  0.27692550247E+03  0.94226901937E+02 0.  0.
          5    1    4    4  502    0 -0.15914764407E+02  0.49380978380E+02  0.17446170323E+03  0.18207343750E+03  0.47000000000E+01 0. -1.
         -5    1    4    4    0  502 -0.54265540579E+02 -0.21168595137E+02  0.74712555260E+02  0.94852064963E+02  0.47000000000E+01 0.  1.
          5    1    3    3  503    0  0.66159118684E+02  0.23562311626E+02  0.97317344096E+02  0.12010398401E+03  0.47000000000E+01 0.  1.
         -5    1    3    3    0  503  0.40211863016E+01 -0.51774694869E+02 -0.55357243888E+01  0.52435896221E+02  0.47000000000E+01 0.  1.
<mgrwt>
<rscale>  0 0.13932807E+03</rscale>
<asrwt>0</asrwt>
<pdfrwt beam="1">  1        2 0.60801634E-01 0.14610320E+03</pdfrwt>
<pdfrwt beam="2">  1       -2 0.83468852E-02 0.14610320E+03</pdfrwt>
<totfact> 0.68687369E+03</totfact>
</mgrwt>
</event>
<event>
 8    1  0.3551276E-004  0.1410919E+03  0.7546771E-02  0.1223358E+00
         -1   -1    0    0    0  501 -0.00000000000E+00  0.00000000000E+00  0.22008882833E+02  0.22008882833E+02  0.00000000000E+00 0.  1.
          1   -1    0    0  501    0  0.00000000000E+00 -0.00000000000E+00 -0.72216863116E+03  0.72216863116E+03  0.00000000000E+00 0. -1.
         25    2    1    2    0    0  0.62782524905E+02  0.18444143653E+02 -0.41058378006E+03  0.43414970817E+03  0.12500038714E+03 0.  0.
         23    2    1    2    0    0 -0.62782524905E+02 -0.18444143653E+02 -0.28957596827E+03  0.31002780582E+03  0.89337378060E+02 0.  0.
          5    1    3    3  502    0  0.71672219891E+02 -0.38994387805E+02 -0.21302705073E+03  0.22816678927E+03  0.47000000000E+01 0. -1.
         -5    1    3    3    0  502 -0.88896949866E+01  0.57438531458E+02 -0.19755672934E+03  0.20598291890E+03  0.47000000000E+01 0. -1.
          5    1    4    4  503    0 -0.31607628639E+02  0.25430390339E+02 -0.20941329093E+03  0.21335829808E+03  0.47000000000E+01 0. -1.
         -5    1    4    4    0  503 -0.31174896266E+02 -0.43874533992E+02 -0.80162677338E+02  0.96669507748E+02  0.47000000000E+01 0.  1.
<mgrwt>
<rscale>  0 0.13280095E+03</rscale>
<asrwt>0</asrwt>
<pdfrwt beam="1">  1        1 0.11110286E+00 0.14109192E+03</pdfrwt>
<pdfrwt beam="2">  1       -1 0.33859822E-02 0.14109192E+03</pdfrwt>
<totfact> 0.81796349E+03</totfact>
</mgrwt>
</event>
<event>
 8    1  0.3551276E-004  0.1488179E+03  0.7546771E-02  0.1210944E+00
         -2   -1    0    0    0  501 -0.00000000000E+00  0.00000000000E+00  0.75248232482E+02  0.75248232482E+02  0.00000000000E+00 0.  1.
          2   -1    0    0  501    0  0.00000000000E+00 -0.00000000000E+00 -0.40458384616E+03  0.40458384616E+03  0.00000000000E+00 0. -1.
         25    2    1    2    0    0 -0.69868903272E+00 -0.80750432315E+02 -0.23932942053E+02  0.15073006899E+03  0.12500258997E+03 0.  0.
         23    2    1    2    0    0  0.69868903272E+00  0.80750432315E+02 -0.30540267162E+03  0.32910200964E+03  0.92283370290E+02 0.  0.
          5    1    4    4  502    0  0.44889646076E+02  0.28251837219E+02 -0.11737156020E+03  0.12888529697E+03  0.47000000000E+01 0. -1.
         -5    1    3    3    0  503 -0.16428287556E+02 -0.11164535612E+03 -0.11200470722E+02  0.11349940405E+03  0.47000000000E+01 0.  1.
          5    1    3    3  503    0  0.15729598523E+02  0.30894923801E+02 -0.12732471330E+02  0.37230664949E+02  0.47000000000E+01 0.  1.
         -5    1    4    4    0  502 -0.44190957043E+02  0.52498595096E+02 -0.18803111142E+03  0.20021671267E+03  0.47000000000E+01 0.  1.
<mgrwt>
<rscale>  0 0.14178744E+03</rscale>
<asrwt>0</asrwt>
<pdfrwt beam="1">  1        2 0.62243670E-01 0.14881790E+03</pdfrwt>
<pdfrwt beam="2">  1       -2 0.11576651E-01 0.14881790E+03</pdfrwt>
<totfact> 0.40086991E+03</totfact>
</mgrwt>
</event>
<event>
 8    1  0.3551276E-004  0.1766303E+03  0.7546771E-02  0.1177031E+00
          1   -1    0    0  501    0  0.00000000000E+00  0.00000000000E+00  0.53945025477E+02  0.53945025477E+02  0.00000000000E+00 0. -1.
         -1   -1    0    0    0  501 -0.00000000000E+00 -0.00000000000E+00 -0.52323966052E+03  0.52323966052E+03  0.00000000000E+00 0.  1.
         25    2    1    2    0    0  0.69993601954E+02  0.10331752675E+03 -0.20048391598E+03  0.26719292848E+03  0.12499857926E+03 0.  0.
         23    2    1    2    0    0 -0.69993601954E+02 -0.10331752675E+03 -0.26881071907E+03  0.30999175751E+03  0.90895937159E+02 0.  0.
          5    1    4    4  502    0 -0.68017792404E+02 -0.20196160768E+02 -0.12463483021E+03  0.14349298204E+03  0.47000000000E+01 0. -1.
         -5    1    3    3    0  503 -0.12369742403E+02  0.90776332185E+02 -0.12196941717E+03  0.15261710827E+03  0.47000000000E+01 0. -1.
          5    1    3    3  503    0  0.82363344357E+02  0.12541194567E+02 -0.78514498810E+02  0.11457582022E+03  0.47000000000E+01 0. -1.
         -5    1    4    4    0  502 -0.19758095509E+01 -0.83121365984E+02 -0.14417588886E+03  0.16649877547E+03  0.47000000000E+01 0.  1.
<mgrwt>
<rscale>  0 0.17078603E+03</rscale>
<asrwt>0</asrwt>
<pdfrwt beam="1">  1        1 0.82992343E-02 0.17663029E+03</pdfrwt>
<pdfrwt beam="2">  1       -1 0.80498413E-01 0.17663029E+03</pdfrwt>
<totfact> 0.13153255E+03</totfact>
</mgrwt>
</event>
<event>
 8    1  0.3551276E-004  0.1663313E+03  0.7546771E-02  0.1188352E+00
         -2   -1    0    0    0  501 -0.00000000000E+00  0.00000000000E+00  0.52223045117E+02  0.52223045117E+02  0.00000000000E+00 0.  1.
          2   -1    0    0  501    0  0.00000000000E+00 -0.00000000000E+00 -0.46787911182E+03  0.46787911182E+03  0.00000000000E+00 0. -1.
         25    2    1    2    0    0 -0.10968749002E+03  0.30770103097E+01 -0.25743210734E+03  0.30649208803E+03  0.12500118669E+03 0.  0.
         23    2    1    2    0    0  0.10968749002E+03 -0.30770103097E+01 -0.15822395936E+03  0.21361006891E+03  0.92485819252E+02 0.  0.
          5    1    3    3  502    0 -0.77653095586E+02  0.58080799343E+02 -0.19163591890E+03  0.21482504025E+03  0.47000000000E+01 0.  1.
         -5    1    4    4    0  503  0.65304712259E+01 -0.30843647625E+02 -0.15984224180E+02  0.35658983102E+02  0.47000000000E+01 0.  1.
          5    1    4    4  503    0  0.10315701880E+03  0.27766637315E+02 -0.14223973518E+03  0.17795108581E+03  0.47000000000E+01 0. -1.
         -5    1    3    3    0  502 -0.32034394438E+02 -0.55003789033E+02 -0.65796188442E+02  0.91667047778E+02  0.47000000000E+01 0.  1.
<mgrwt>
<rscale>  0 0.16030582E+03</rscale>
<asrwt>0</asrwt>
<pdfrwt beam="1">  1        2 0.71981402E-01 0.16633133E+03</pdfrwt>
<pdfrwt beam="2">  1       -2 0.80343146E-02 0.16633133E+03</pdfrwt>
<totfact> 0.61164722E+03</totfact>
</mgrwt>
</event>
<event>
 8    1  0.3551276E-004  0.1282073E+03  0.7546771E-02  0.1242966E+00
         -4   -1    0    0    0  501 -0.00000000000E+00  0.00000000000E+00  0.17255681560E+03  0.17255681560E+03  0.00000000000E+00 0. -1.
          4   -1    0    0  501    0  0.00000000000E+00 -0.00000000000E+00 -0.91397634615E+02  0.91397634615E+02  0.00000000000E+00 0.  1.
         25    2    1    2    0    0  0.19875268238E+02 -0.20410988076E+02 -0.11348864270E+02  0.12870866296E+03  0.12500195390E+03 0.  0.
         23    2    1    2    0    0 -0.19875268238E+02  0.20410988076E+02  0.92508045251E+02  0.13524578725E+03  0.94456602795E+02 0.  0.
          5    1    3    3  502    0  0.26268950387E+02  0.42524518258E+02  0.24481021010E+02  0.55855194899E+02  0.47000000000E+01 0.  1.
         -5    1    3    3    0  502 -0.63936821491E+01 -0.62935506334E+02 -0.35829885281E+02  0.72853468059E+02  0.47000000000E+01 0.  1.
          5    1    4    4  503    0  0.27837580233E+02  0.30820327191E+02  0.69403024262E+02  0.81016623097E+02  0.47000000000E+01 0. -1.
         -5    1    4    4    0  503 -0.47712848471E+02 -0.10409339116E+02  0.23105020989E+02  0.54229164155E+02  0.47000000000E+01 0.  1.
<mgrwt>
<rscale>  0 0.12007963E+03</rscale>
<asrwt>0</asrwt>
<pdfrwt beam="1">  1        4 0.14061175E-01 0.12820734E+03</pdfrwt>
<pdfrwt beam="2">  1       -4 0.26547202E-01 0.12820734E+03</pdfrwt>
<totfact> 0.92266770E+02</totfact>
</mgrwt>
</event>
<event>
 8    1  0.3551276E-004  0.1492121E+03  0.7546771E-02  0.1210875E+00
          1   -1    0    0  501    0  0.00000000000E+00  0.00000000000E+00  0.12523067019E+04  0.12523067019E+04  0.00000000000E+00 0. -1.
         -1   -1    0    0    0  501 -0.00000000000E+00 -0.00000000000E+00 -0.19294985901E+02  0.19294985901E+02  0.00000000000E+00 0.  1.
         25    2    1    2    0    0 -0.79351198947E+02  0.18645662711E+02  0.35364268143E+03  0.38383249459E+03  0.12497985542E+03 0.  0.
         23    2    1    2    0    0  0.79351198947E+02 -0.18645662711E+02  0.87936903460E+03  0.88776919324E+03  0.90553674384E+02 0.  0.
          5    1    4    4  502    0  0.68762614504E+02 -0.52037408894E+02  0.60488321812E+03  0.61101717377E+03  0.47000000000E+01 0. -1.
         -5    1    4    4    0  502  0.10588584443E+02  0.33391746183E+02  0.27448581648E+03  0.27675201947E+03  0.47000000000E+01 0.  1.
          5    1    3    3  503    0 -0.41997663408E+02  0.12745239037E+02  0.20764437179E+02  0.48780085087E+02  0.47000000000E+01 0. -1.
         -5    1    3    3    0  503 -0.37353535539E+02  0.59004236740E+01  0.33287824425E+03  0.33505240950E+03  0.47000000000E+01 0. -1.
<mgrwt>
<rscale>  0 0.14183966E+03</rscale>
<asrwt>0</asrwt>
<pdfrwt beam="1">  1        1 0.19266251E+00 0.14921206E+03</pdfrwt>
<pdfrwt beam="2">  1       -1 0.29684603E-02 0.14921206E+03</pdfrwt>
<totfact> 0.39801044E+03</totfact>
</mgrwt>
</event>
<event>
 8    1  0.3551276E-004  0.1351082E+03  0.7546771E-02  0.1231790E+00
          2   -1    0    0  501    0  0.00000000000E+00  0.00000000000E+00  0.12755924014E+04  0.12755924014E+04  0.00000000000E+00 0. -1.
         -2   -1    0    0    0  501 -0.00000000000E+00 -0.00000000000E+00 -0.11393458119E+02  0.11393458119E+02  0.00000000000E+00 0.  1.
         25    2    1    2    0    0  0.50312253861E+02  0.98747855044E+01  0.72848968812E+03  0.74091257287E+03  0.12500152266E+03 0.  0.
         23    2    1    2    0    0 -0.50312253861E+02 -0.98747855044E+01  0.53570925517E+03  0.54607328665E+03  0.92643370216E+02 0.  0.
          5    1    4    4  502    0 -0.54821862249E+02 -0.35382759153E+02  0.48022317556E+03  0.48465839987E+03  0.47000000000E+01 0. -1.
         -5    1    4    4    0  502  0.45096083879E+01  0.25507973649E+02  0.55486079613E+02  0.61414886781E+02  0.47000000000E+01 0.  1.
          5    1    3    3  503    0 -0.39960437228E+02  0.31147494672E+01  0.31688852452E+03  0.31944790684E+03  0.47000000000E+01 0.  1.
         -5    1    3    3    0  503  0.90272691089E+02  0.67600360372E+01  0.41160116360E+03  0.42146466604E+03  0.47000000000E+01 0.  1.
<mgrwt>
<rscale>  0 0.12712172E+03</rscale>
<asrwt>0</asrwt>
<pdfrwt beam="1">  1        2 0.19624487E+00 0.13510816E+03</pdfrwt>
<pdfrwt beam="2">  1       -2 0.17528407E-02 0.13510816E+03</pdfrwt>
<totfact> 0.16364282E+04</totfact>
</mgrwt>
</event>
<event>
 8    1  0.3551276E-004  0.1250171E+03  0.7546771E-02  0.1248624E+00
          2   -1    0    0  501    0  0.00000000000E+00  0.00000000000E+00  0.17298765483E+03  0.17298765483E+03  0.00000000000E+00 0. -1.
         -2   -1    0    0    0  501 -0.00000000000E+00 -0.00000000000E+00 -0.89247677621E+02  0.89247677621E+02  0.00000000000E+00 0.  1.
         25    2    1    2    0    0  0.16341360430E+01 -0.16944189410E+01 -0.14197844709E+02  0.12582072415E+03  0.12499493740E+03 0.  0.
         23    2    1    2    0    0 -0.16341360430E+01  0.16944189410E+01  0.97937821923E+02  0.13641460831E+03  0.94929378702E+02 0.  0.
          5    1    4    4  502    0  0.46024273600E+02  0.51222508496E+01  0.54470169816E+02  0.71648870290E+02  0.47000000000E+01 0. -1.
         -5    1    4    4    0  502 -0.47658409643E+02 -0.34278319085E+01  0.43467652107E+02  0.64765738018E+02  0.47000000000E+01 0.  1.
          5    1    3    3  503    0 -0.38080065056E+02  0.42782759268E+02  0.14809785263E+02  0.59345392279E+02  0.47000000000E+01 0.  1.
         -5    1    3    3    0  503  0.39714201099E+02 -0.44477178209E+02 -0.29007629973E+02  0.66475331868E+02  0.47000000000E+01 0.  1.
<mgrwt>
<rscale>  0 0.11671068E+03</rscale>
<asrwt>0</asrwt>
<pdfrwt beam="1">  1        2 0.26613485E-01 0.12501710E+03</pdfrwt>
<pdfrwt beam="2">  1       -2 0.13730412E-01 0.12501710E+03</pdfrwt>
<totfact> 0.74842752E+03</totfact>
</mgrwt>
</event>
<event>
 8    1  0.3551276E-004  0.1675891E+03  0.7546771E-02  0.1186984E+00
         -2   -1    0    0    0  501 -0.00000000000E+00  0.00000000000E+00  0.12562418117E+03  0.12562418117E+03  0.00000000000E+00 0. -1.
          2   -1    0    0  501    0  0.00000000000E+00 -0.00000000000E+00 -0.19632465815E+03  0.19632465815E+03  0.00000000000E+00 0.  1.
         25    2    1    2    0    0 -0.41840844538E+02 -0.10349382943E+03 -0.20395004283E+02  0.16882553656E+03  0.12499790636E+03 0.  0.
         23    2    1    2    0    0  0.41840844538E+02  0.10349382943E+03 -0.50305472700E+02  0.15312330276E+03  0.91948225994E+02 0.  0.
          5    1    4    4  502    0 -0.29097359284E+02  0.31559173622E+02 -0.10552906638E+02  0.44453251799E+02  0.47000000000E+01 0. -1.
         -5    1    4    4    0  502  0.70938203822E+02  0.71934655806E+02 -0.39752566062E+02  0.10867005096E+03  0.47000000000E+01 0.  1.
          5    1    3    3  503    0 -0.34404426429E+02  0.19559223017E+02  0.11352216998E+02  0.41438998464E+02  0.47000000000E+01 0.  1.
         -5    1    3    3    0  503 -0.74364181093E+01 -0.12305305244E+03 -0.31747221281E+02  0.12738653810E+03  0.47000000000E+01 0.  1.
<mgrwt>
<rscale>  0 0.16152674E+03</rscale>
<asrwt>0</asrwt>
<pdfrwt beam="1">  1        2 0.30203793E-01 0.16758910E+03</pdfrwt>
<pdfrwt beam="2">  1       -2 0.19326797E-01 0.16758910E+03</pdfrwt>
<totfact> 0.37734341E+03</totfact>
</mgrwt>
</event>
<event>
 8    1  0.3551276E-004  0.1840417E+03  0.7546771E-02  0.1168469E+00
         -2   -1    0    0    0  501 -0.00000000000E+00  0.00000000000E+00  0.89554246651E+02  0.89554246651E+02  0.00000000000E+00 0.  1.
          2   -1    0    0  501    0  0.00000000000E+00 -0.00000000000E+00 -0.36501685865E+03  0.36501685865E+03  0.00000000000E+00 0. -1.
         25    2    1    2    0    0  0.13455898186E+03  0.11742782915E+02 -0.20174755445E+03  0.27308133389E+03  0.12500930623E+03 0.  0.
         23    2    1    2    0    0 -0.13455898186E+03 -0.11742782915E+02 -0.73715057557E+02  0.18148977142E+03  0.96232088570E+02 0.  0.
          5    1    3    3  502    0  0.32625165067E+02  0.57660842927E+02 -0.43973505501E+02  0.79655090163E+02  0.47000000000E+01 0.  1.
         -5    1    3    3    0  502  0.10193381679E+03 -0.45918060013E+02 -0.15777404894E+03  0.19342624372E+03  0.47000000000E+01 0.  1.
          5    1    4    4  503    0 -0.84328516130E+02  0.28825415282E+02 -0.85782855303E+01  0.89654225676E+02  0.47000000000E+01 0. -1.
         -5    1    4    4    0  503 -0.50230465726E+02 -0.40568198197E+02 -0.65136772026E+02  0.91835545743E+02  0.47000000000E+01 0.  1.
<mgrwt>
<rscale>  0 0.17931345E+03</rscale>
<asrwt>0</asrwt>
<pdfrwt beam="1">  1        2 0.56156441E-01 0.18404168E+03</pdfrwt>
<pdfrwt beam="2">  1       -2 0.13777576E-01 0.18404168E+03</pdfrwt>
<totfact> 0.34130324E+03</totfact>
</mgrwt>
</event>
<event>
 8    1  0.3551276E-004  0.1347997E+03  0.7546771E-02  0.1233091E+00
          2   -1    0    0  501    0  0.00000000000E+00  0.00000000000E+00  0.37741882756E+03  0.37741882756E+03  0.00000000000E+00 0. -1.
         -2   -1    0    0    0  501 -0.00000000000E+00 -0.00000000000E+00 -0.39306575583E+02  0.39306575583E+02  0.00000000000E+00 0.  1.
         25    2    1    2    0    0 -0.34726354521E+01  0.50334925099E+02  0.14847016146E+03  0.20053513318E+03  0.12500114765E+03 0.  0.
         23    2    1    2    0    0  0.34726354521E+01 -0.50334925099E+02  0.18964209051E+03  0.21619026996E+03  0.90710784633E+02 0.  0.
          5    1    4    4  502    0 -0.34167874004E+02 -0.34996573172E+02  0.15492406290E+03  0.16252925586E+03  0.47000000000E+01 0. -1.
         -5    1    4    4    0  502  0.37640509456E+02 -0.15338351927E+02  0.34718027617E+02  0.53661014093E+02  0.47000000000E+01 0.  1.
          5    1    3    3  503    0 -0.24759466549E+02 -0.28824342017E+02  0.10032482881E+02  0.39580482428E+02  0.47000000000E+01 0.  1.
         -5    1    3    3    0  503  0.21286831097E+02  0.79159267116E+02  0.13843767858E+03  0.16095465076E+03  0.47000000000E+01 0.  1.
<mgrwt>
<rscale>  0 0.12627410E+03</rscale>
<asrwt>0</asrwt>
<pdfrwt beam="1">  1        2 0.58064432E-01 0.13479967E+03</pdfrwt>
<pdfrwt beam="2">  1       -2 0.60471657E-02 0.13479967E+03</pdfrwt>
<totfact> 0.11762870E+04</totfact>
</mgrwt>
</event>
<event>
 8    1  0.3551276E-004  0.2512404E+03  0.7546771E-02  0.1114916E+00
          2   -1    0    0  501    0  0.00000000000E+00  0.00000000000E+00  0.26008164153E+03  0.26008164153E+03  0.00000000000E+00 0. -1.
         -2   -1    0    0    0  501 -0.00000000000E+00 -0.00000000000E+00 -0.22934313305E+03  0.22934313305E+03  0.00000000000E+00 0.  1.
         25    2    1    2    0    0 -0.77945026836E+02  0.20352313355E+03  0.24437242287E+01  0.25125228209E+03  0.12499857746E+03 0.  0.
         23    2    1    2    0    0  0.77945026836E+02 -0.20352313355E+03  0.28294784255E+02  0.23817249249E+03  0.91806580721E+02 0.  0.
          5    1    3    3  502    0 -0.67141952570E+02  0.11104251000E+03 -0.55795483739E+02  0.14132836526E+03  0.47000000000E+01 0. -1.
         -5    1    4    4    0  503  0.24603662175E+02 -0.16601409623E+03  0.25631464492E+01  0.16791271560E+03  0.47000000000E+01 0.  1.
          5    1    4    4  503    0  0.53341364661E+02 -0.37509037320E+02  0.25731637806E+02  0.70259776890E+02  0.47000000000E+01 0. -1.
         -5    1    3    3    0  502 -0.10803074266E+02  0.92480623554E+02  0.58239207967E+02  0.10992391683E+03  0.47000000000E+01 0. -1.
<mgrwt>
<rscale>  0 0.24746762E+03</rscale>
<asrwt>0</asrwt>
<pdfrwt beam="1">  1        2 0.40012560E-01 0.25124040E+03</pdfrwt>
<pdfrwt beam="2">  1       -2 0.35283559E-01 0.25124040E+03</pdfrwt>
<totfact> 0.96663869E+02</totfact>
</mgrwt>
</event>
<event>
 8    1  0.3551276E-004  0.1951420E+03  0.7546771E-02  0.1158377E+00
         -2   -1    0    0    0  501 -0.00000000000E+00  0.00000000000E+00  0.54197268084E+02  0.54197268084E+02  0.00000000000E+00 0. -1.
          2   -1    0    0  501    0  0.00000000000E+00 -0.00000000000E+00 -0.63638458054E+03  0.63638458054E+03  0.00000000000E+00 0.  1.
         25    2    1    2    0    0 -0.12347984081E+03  0.84902803523E+02 -0.32537901969E+03  0.37940996357E+03  0.12499862748E+03 0.  0.
         23    2    1    2    0    0  0.12347984081E+03 -0.84902803523E+02 -0.25680829276E+03  0.31117188505E+03  0.91769742733E+02 0.  0.
          5    1    4    4  502    0  0.33688048121E+02 -0.21864679978E+02 -0.10930389967E+02  0.41886898209E+02  0.47000000000E+01 0. -1.
         -5    1    4    4    0  502  0.89791792686E+02 -0.63038123545E+02 -0.24587790280E+03  0.26928498684E+03  0.47000000000E+01 0.  1.
          5    1    3    3  503    0 -0.98215562678E+02  0.71250177727E+02 -0.32842261337E+03  0.35015194923E+03  0.47000000000E+01 0. -1.
         -5    1    3    3    0  503 -0.25264278129E+02  0.13652625795E+02  0.30435936817E+01  0.29258014338E+02  0.47000000000E+01 0. -1.
<mgrwt>
<rscale>  0 0.19009395E+03</rscale>
<asrwt>0</asrwt>
<pdfrwt beam="1">  1        2 0.97905314E-01 0.19514204E+03</pdfrwt>
<pdfrwt beam="2">  1       -2 0.83380417E-02 0.19514204E+03</pdfrwt>
<totfact> 0.41082813E+03</totfact>
</mgrwt>
</event>
<event>
 8    1  0.3551276E-004  0.1265577E+03  0.7546771E-02  0.1247264E+00
         -1   -1    0    0    0  501 -0.00000000000E+00  0.00000000000E+00  0.50753814006E+02  0.50753814006E+02  0.00000000000E+00 0.  1.
          1   -1    0    0  501    0  0.00000000000E+00 -0.00000000000E+00 -0.24850562619E+03  0.24850562619E+03  0.00000000000E+00 0. -1.
         25    2    1    2    0    0 -0.21775337750E+01  0.19653794758E+02 -0.85142154696E+02  0.15253207465E+03  0.12500333591E+03 0.  0.
         23    2    1    2    0    0  0.21775337750E+01 -0.19653794758E+02 -0.11260965749E+03  0.14672736554E+03  0.91961793907E+02 0.  0.
          5    1    4    4  502    0  0.36796934338E+02 -0.52164837896E+01 -0.10014624964E+03  0.10692327808E+03  0.47000000000E+01 0. -1.
         -5    1    3    3    0  503 -0.27544230723E+02  0.35581653413E+02 -0.10632223545E+03  0.11554759390E+03  0.47000000000E+01 0. -1.
          5    1    3    3  503    0  0.25366696948E+02 -0.15927858656E+02  0.21180080753E+02  0.36984480747E+02  0.47000000000E+01 0. -1.
         -5    1    4    4    0  502 -0.34619400563E+02 -0.14437310968E+02 -0.12463407848E+02  0.39804087460E+02  0.47000000000E+01 0.  1.
<mgrwt>
<rscale>  0 0.11750922E+03</rscale>
<asrwt>0</asrwt>
<pdfrwt beam="1">  1        1 0.38231635E-01 0.12655768E+03</pdfrwt>
<pdfrwt beam="2">  1       -1 0.78082791E-02 0.12655768E+03</pdfrwt>
<totfact> 0.93510511E+03</totfact>
</mgrwt>
</event>
<event>
 8    1  0.3551276E-004  0.1684215E+03  0.7546771E-02  0.1185994E+00
          1   -1    0    0  501    0  0.00000000000E+00  0.00000000000E+00  0.18851560226E+03  0.18851560226E+03  0.00000000000E+00 0. -1.
         -1   -1    0    0    0  501 -0.00000000000E+00 -0.00000000000E+00 -0.22098040277E+03  0.22098040277E+03  0.00000000000E+00 0.  1.
         25    2    1    2    0    0  0.74105352926E+02 -0.85146384198E+02 -0.14750707485E+03  0.22388422722E+03  0.12499719995E+03 0.  0.
         23    2    1    2    0    0 -0.74105352926E+02  0.85146384198E+02  0.11504227434E+03  0.18561177781E+03  0.92062463057E+02 0.  0.
          5    1    4    4  502    0 -0.66024661256E+02  0.22897336348E+02  0.97895830148E+02  0.12037120697E+03  0.47000000000E+01 0. -1.
         -5    1    4    4    0  502 -0.80806916692E+01  0.62249047851E+02  0.17146444187E+02  0.65240570847E+02  0.47000000000E+01 0.  1.
          5    1    3    3  503    0 -0.18610488433E+02  0.16421471456E+02 -0.49317875255E+01  0.25737667585E+02  0.47000000000E+01 0.  1.
         -5    1    3    3    0  503  0.92715841359E+02 -0.10156785565E+03 -0.14257528732E+03  0.19814655964E+03  0.47000000000E+01 0.  1.
<mgrwt>
<rscale>  0 0.16241783E+03</rscale>
<asrwt>0</asrwt>
<pdfrwt beam="1">  1        1 0.29002400E-01 0.16842152E+03</pdfrwt>
<pdfrwt beam="2">  1       -1 0.33996985E-01 0.16842152E+03</pdfrwt>
<totfact> 0.12890181E+03</totfact>
</mgrwt>
</event>
<event>
 8    1  0.3551276E-004  0.1398879E+03  0.7546771E-02  0.1223748E+00
         -2   -1    0    0    0  501 -0.00000000000E+00  0.00000000000E+00  0.10416565278E+03  0.10416565278E+03  0.00000000000E+00 0. -1.
          2   -1    0    0  501    0  0.00000000000E+00 -0.00000000000E+00 -0.26503445625E+03  0.26503445625E+03  0.00000000000E+00 0.  1.
         25    2    1    2    0    0  0.45442476306E+02 -0.43341864919E+02 -0.20498746864E+03  0.24817027060E+03  0.12500034001E+03 0.  0.
         23    2    1    2    0    0 -0.45442476306E+02  0.43341864919E+02  0.44118665170E+02  0.12102983843E+03  0.93585411615E+02 0.  0.
          5    1    4    4  502    0 -0.25280077933E+02 -0.21410392282E+02  0.41077403534E+02  0.52980471110E+02  0.47000000000E+01 0. -1.
         -5    1    4    4    0  502 -0.20162398373E+02  0.64752257200E+02  0.30412616360E+01  0.68049367323E+02  0.47000000000E+01 0.  1.
          5    1    3    3  503    0 -0.28327030789E+02 -0.32847345410E+02 -0.14785653926E+03  0.15415905739E+03  0.47000000000E+01 0. -1.
         -5    1    3    3    0  503  0.73769507095E+02 -0.10494519509E+02 -0.57130929379E+02  0.94011213206E+02  0.47000000000E+01 0. -1.
<mgrwt>
<rscale>  0 0.13253119E+03</rscale>
<asrwt>0</asrwt>
<pdfrwt beam="1">  1        2 0.40774532E-01 0.13988789E+03</pdfrwt>
<pdfrwt beam="2">  1       -2 0.16025485E-01 0.13988789E+03</pdfrwt>
<totfact> 0.37017132E+03</totfact>
</mgrwt>
</event>
<event>
 8    1  0.3551276E-004  0.1598289E+03  0.7546771E-02  0.1196621E+00
          2   -1    0    0  501    0  0.00000000000E+00  0.00000000000E+00  0.56631799059E+02  0.56631799059E+02  0.00000000000E+00 0.  1.
         -2   -1    0    0    0  501 -0.00000000000E+00 -0.00000000000E+00 -0.39735622475E+03  0.39735622475E+03  0.00000000000E+00 0. -1.
         25    2    1    2    0    0  0.95542215954E+02 -0.28156835417E+02 -0.14177344165E+03  0.21364686758E+03  0.12499661139E+03 0.  0.
         23    2    1    2    0    0 -0.95542215954E+02  0.28156835417E+02 -0.19895098405E+03  0.24034115624E+03  0.90891445790E+02 0.  0.
          5    1    3    3  502    0  0.47798368691E+02 -0.64093432080E+02 -0.27634353267E+02  0.84725436356E+02  0.47000000000E+01 0. -1.
         -5    1    3    3    0  502  0.47743847263E+02  0.35936596663E+02 -0.11413908838E+03  0.12892143122E+03  0.47000000000E+01 0. -1.
          5    1    4    4  503    0 -0.22496165513E+02 -0.45313274068E+01 -0.13710775880E+03  0.13909434897E+03  0.47000000000E+01 0. -1.
         -5    1    4    4    0  503 -0.73046050440E+02  0.32688162824E+02 -0.61843225248E+02  0.10124680727E+03  0.47000000000E+01 0.  1.
<mgrwt>
<rscale>  0 0.15317850E+03</rscale>
<asrwt>0</asrwt>
<pdfrwt beam="1">  1        2 0.87125845E-02 0.15982889E+03</pdfrwt>
<pdfrwt beam="2">  1       -2 0.61131727E-01 0.15982889E+03</pdfrwt>
<totfact> 0.18895128E+03</totfact>
</mgrwt>
</event>
<event>
 8    1  0.3551276E-004  0.2204361E+03  0.7546771E-02  0.1136901E+00
          1   -1    0    0  501    0  0.00000000000E+00  0.00000000000E+00  0.77679512248E+03  0.77679512248E+03  0.00000000000E+00 0. -1.
         -1   -1    0    0    0  501 -0.00000000000E+00 -0.00000000000E+00 -0.58539038941E+02  0.58539038941E+02  0.00000000000E+00 0.  1.
         25    2    1    2    0    0  0.23955138434E+02 -0.17997610326E+03  0.32553428835E+03  0.39314713092E+03  0.12500738881E+03 0.  0.
         23    2    1    2    0    0 -0.23955138434E+02  0.17997610326E+03  0.39272179518E+03  0.44218703050E+03  0.91289184049E+02 0.  0.
          5    1    3    3  502    0  0.58383725312E+02 -0.29739235276E+02  0.84939669147E+02  0.10737745988E+03  0.47000000000E+01 0.  1.
         -5    1    4    4    0  503  0.30510465525E+02  0.11057943625E+03  0.22770969597E+03  0.25501469736E+03  0.47000000000E+01 0.  1.
          5    1    4    4  503    0 -0.54465603959E+02  0.69396667010E+02  0.16501209921E+03  0.18717233314E+03  0.47000000000E+01 0. -1.
         -5    1    3    3    0  502 -0.34428586877E+02 -0.15023686798E+03  0.24059461920E+03  0.28576967104E+03  0.47000000000E+01 0.  1.
<mgrwt>
<rscale>  0 0.21600037E+03</rscale>
<asrwt>0</asrwt>
<pdfrwt beam="1">  1        1 0.11950693E+00 0.22043614E+03</pdfrwt>
<pdfrwt beam="2">  1       -1 0.90060066E-02 0.22043614E+03</pdfrwt>
<totfact> 0.17250799E+03</totfact>
</mgrwt>
</event>
<event>
 8    1  0.3551276E-004  0.1352387E+03  0.7546771E-02  0.1232642E+00
         -1   -1    0    0    0  501 -0.00000000000E+00  0.00000000000E+00  0.75449923765E+03  0.75449923765E+03  0.00000000000E+00 0.  1.
          1   -1    0    0  501    0  0.00000000000E+00 -0.00000000000E+00 -0.23606564362E+02  0.23606564362E+02  0.00000000000E+00 0. -1.
         25    2    1    2    0    0 -0.49148969238E+02 -0.15721777489E+02  0.23199243750E+03  0.26853303284E+03  0.12500681263E+03 0.  0.
         23    2    1    2    0    0  0.49148969238E+02  0.15721777489E+02  0.49890023579E+03  0.50957276918E+03  0.90000924159E+02 0.  0.
          5    1    3    3  502    0 -0.42561143987E+02 -0.63167957185E+02  0.18964792856E+03  0.20442619353E+03  0.47000000000E+01 0.  1.
         -5    1    4    4    0  503  0.37551652925E+02 -0.32208051918E+02  0.17548053484E+03  0.18238145013E+03  0.47000000000E+01 0.  1.
          5    1    4    4  503    0  0.11597316314E+02  0.47929829407E+02  0.32341970096E+03  0.32719131905E+03  0.47000000000E+01 0. -1.
         -5    1    3    3    0  502 -0.65878252516E+01  0.47446179696E+02  0.42344508937E+02  0.64106839310E+02  0.47000000000E+01 0.  1.
<mgrwt>
<rscale>  0 0.12656603E+03</rscale>
<asrwt>0</asrwt>
<pdfrwt beam="1">  1        1 0.36317797E-02 0.13523867E+03</pdfrwt>
<pdfrwt beam="2">  1       -1 0.11607679E+00 0.13523867E+03</pdfrwt>
<totfact> 0.18114251E+03</totfact>
</mgrwt>
</event>
<event>
 8    1  0.3551276E-004  0.1851933E+03  0.7546771E-02  0.1168338E+00
         -4   -1    0    0    0  501 -0.00000000000E+00  0.00000000000E+00  0.45155474228E+03  0.45155474228E+03  0.00000000000E+00 0.  1.
          4   -1    0    0  501    0  0.00000000000E+00 -0.00000000000E+00 -0.16546522037E+03  0.16546522037E+03  0.00000000000E+00 0. -1.
         25    2    1    2    0    0 -0.15369405899E+02 -0.13577632094E+03  0.38422921790E+03  0.42653093591E+03  0.12500047773E+03 0.  0.
         23    2    1    2    0    0  0.15369405899E+02  0.13577632094E+03 -0.98139696000E+02  0.19048902674E+03  0.89348986630E+02 0.  0.
          5    1    3    3  502    0 -0.51295665167E+02 -0.98072228053E+02  0.34145017994E+03  0.35897036446E+03  0.47000000000E+01 0.  1.
         -5    1    3    3    0  502  0.35926259268E+02 -0.37704092888E+02  0.42779037961E+02  0.67560571448E+02  0.47000000000E+01 0.  1.
          5    1    4    4  503    0  0.82898874986E+01  0.19944296151E+02 -0.66552220616E+02  0.70126922452E+02  0.47000000000E+01 0. -1.
         -5    1    4    4    0  503  0.70795183999E+01  0.11583202479E+03 -0.31587475384E+02  0.12036210429E+03  0.47000000000E+01 0.  1.
<mgrwt>
<rscale>  0 0.17944880E+03</rscale>
<asrwt>0</asrwt>
<pdfrwt beam="1">  1        4 0.25456188E-01 0.18519327E+03</pdfrwt>
<pdfrwt beam="2">  1       -4 0.69469960E-01 0.18519327E+03</pdfrwt>
<totfact> 0.49389915E+01</totfact>
</mgrwt>
</event>
<event>
 8    1  0.3551276E-004  0.1604220E+03  0.7546771E-02  0.1195838E+00
          2   -1    0    0  501    0  0.00000000000E+00  0.00000000000E+00  0.11574589061E+04  0.11574589061E+04  0.00000000000E+00 0. -1.
         -2   -1    0    0    0  501 -0.00000000000E+00 -0.00000000000E+00 -0.19494488321E+02  0.19494488321E+02  0.00000000000E+00 0.  1.
         25    2    1    2    0    0 -0.21894261406E+02 -0.98146357991E+02  0.71467843112E+03  0.73246193396E+03  0.12499263384E+03 0.  0.
         23    2    1    2    0    0  0.21894261406E+02  0.98146357991E+02  0.42328598661E+03  0.44449146042E+03  0.91047051872E+02 0.  0.
          5    1    3    3  502    0 -0.66878749098E+02 -0.79367533613E+02  0.36956341734E+03  0.38388954389E+03  0.47000000000E+01 0.  1.
         -5    1    3    3    0  502  0.44984487692E+02 -0.18778824378E+02  0.34511501378E+03  0.34857239007E+03  0.47000000000E+01 0.  1.
          5    1    4    4  503    0  0.12395634824E+01  0.62163193050E+02  0.37713497695E+03  0.38225473173E+03  0.47000000000E+01 0. -1.
         -5    1    4    4    0  503  0.20654697923E+02  0.35983164941E+02  0.46151009655E+02  0.62236728687E+02  0.47000000000E+01 0.  1.
<mgrwt>
<rscale>  0 0.15383496E+03</rscale>
<asrwt>0</asrwt>
<pdfrwt beam="1">  1        2 0.17807055E+00 0.16042202E+03</pdfrwt>
<pdfrwt beam="2">  1       -2 0.29991530E-02 0.16042202E+03</pdfrwt>
<totfact> 0.87586284E+03</totfact>
</mgrwt>
</event>
<event>
 8    1  0.4169138E-004  0.1571083E+03  0.7546771E-02  0.1200138E+00
         -4   -1    0    0    0  501 -0.00000000000E+00  0.00000000000E+00  0.34145917103E+02  0.34145917103E+02  0.00000000000E+00 0.  1.
          4   -1    0    0  501    0  0.00000000000E+00 -0.00000000000E+00 -0.61318462488E+03  0.61318462488E+03  0.00000000000E+00 0. -1.
         25    2    1    2    0    0  0.33359849842E+02 -0.89130265455E+02 -0.29127927723E+03  0.33094807646E+03  0.12500371263E+03 0.  0.
         23    2    1    2    0    0 -0.33359849842E+02  0.89130265455E+02 -0.28775943055E+03  0.31638246552E+03  0.90748503116E+02 0.  0.
          5    1    4    4  502    0  0.82499203747E+01  0.89117780364E+02 -0.19497846268E+03  0.21458968026E+03  0.47000000000E+01 0. -1.
         -5    1    3    3    0  503  0.70644274174E+02 -0.35429734365E+02 -0.93098867977E+02  0.12221034641E+03  0.47000000000E+01 0.  1.
          5    1    3    3  503    0 -0.37284424332E+02 -0.53700531089E+02 -0.19818040925E+03  0.20873773005E+03  0.47000000000E+01 0.  1.
         -5    1    4    4    0  502 -0.41609770217E+02  0.12485090379E-01 -0.92780967869E+02  0.10179278527E+03  0.47000000000E+01 0.  1.
<mgrwt>
<rscale>  0 0.15027306E+03</rscale>
<asrwt>0</asrwt>
<pdfrwt beam="1">  1        4 0.94336087E-01 0.15710828E+03</pdfrwt>
<pdfrwt beam="2">  1       -4 0.52532185E-02 0.15710828E+03</pdfrwt>
<totfact> 0.36904289E+02</totfact>
</mgrwt>
</event>
<event>
 8    1  0.3551276E-004  0.1730581E+03  0.7546771E-02  0.1180932E+00
          2   -1    0    0  501    0  0.00000000000E+00  0.00000000000E+00  0.12738170125E+03  0.12738170125E+03  0.00000000000E+00 0. -1.
         -2   -1    0    0    0  501 -0.00000000000E+00 -0.00000000000E+00 -0.21225278785E+03  0.21225278785E+03  0.00000000000E+00 0.  1.
         25    2    1    2    0    0  0.85974513114E+02 -0.83246180214E+02 -0.14573707142E+02  0.17367066793E+03  0.12501025771E+03 0.  0.
         23    2    1    2    0    0 -0.85974513114E+02  0.83246180214E+02 -0.70297379456E+02  0.16596382118E+03  0.90998488758E+02 0.  0.
          5    1    3    3  502    0  0.99750199418E+02 -0.10001959541E+03 -0.32622737346E+02  0.14505293772E+03  0.47000000000E+01 0.  1.
         -5    1    3    3    0  502 -0.13775686304E+02  0.16773415199E+02  0.18049030204E+02  0.28617730202E+02  0.47000000000E+01 0.  1.
          5    1    4    4  503    0 -0.59245886821E+02  0.91084301765E+02 -0.23449046027E+02  0.11125813630E+03  0.47000000000E+01 0. -1.
         -5    1    4    4    0  503 -0.26728626293E+02 -0.78381215510E+01 -0.46848333429E+02  0.54705684879E+02  0.47000000000E+01 0.  1.
<mgrwt>
<rscale>  0 0.16707557E+03</rscale>
<asrwt>0</asrwt>
<pdfrwt beam="1">  1        2 0.19597185E-01 0.17305811E+03</pdfrwt>
<pdfrwt beam="2">  1       -2 0.32654275E-01 0.17305811E+03</pdfrwt>
<totfact> 0.24327541E+03</totfact>
</mgrwt>
</event>
<event>
 8    1  0.3551276E-004  0.1286316E+03  0.7546771E-02  0.1243682E+00
          1   -1    0    0  501    0  0.00000000000E+00  0.00000000000E+00  0.40653915258E+03  0.40653915258E+03  0.00000000000E+00 0. -1.
         -1   -1    0    0    0  501 -0.00000000000E+00 -0.00000000000E+00 -0.31205591143E+02  0.31205591143E+02  0.00000000000E+00 0.  1.
         25    2    1    2    0    0  0.13015814372E+02  0.27412232468E+02  0.22666372987E+03  0.26061951416E+03  0.12500097123E+03 0.  0.
         23    2    1    2    0    0 -0.13015814372E+02 -0.27412232468E+02  0.14866983156E+03  0.17712522956E+03  0.91377164638E+02 0.  0.
          5    1    4    4  502    0  0.64374276080E+01  0.30006765197E+02  0.27162360592E+02  0.41252033462E+02  0.47000000000E+01 0. -1.
         -5    1    4    4    0  502 -0.19453241980E+02 -0.57418997665E+02  0.12150747097E+03  0.13587319610E+03  0.47000000000E+01 0.  1.
          5    1    3    3  503    0  0.53985616025E+02  0.18008264108E+02  0.20557101545E+03  0.21335481412E+03  0.47000000000E+01 0. -1.
         -5    1    3    3    0  503 -0.40969801653E+02  0.94039683595E+01  0.21092714420E+02  0.47264700041E+02  0.47000000000E+01 0. -1.
<mgrwt>
<rscale>  0 0.11964632E+03</rscale>
<asrwt>0</asrwt>
<pdfrwt beam="1">  1        1 0.62544481E-01 0.12863159E+03</pdfrwt>
<pdfrwt beam="2">  1       -1 0.48008605E-02 0.12863159E+03</pdfrwt>
<totfact> 0.10486196E+04</totfact>
</mgrwt>
</event>
<event>
 8    1  0.3551276E-004  0.1550788E+03  0.7546771E-02  0.1202407E+00
          3   -1    0    0  501    0  0.00000000000E+00  0.00000000000E+00  0.43368795126E+02  0.43368795126E+02  0.00000000000E+00 0. -1.
         -3   -1    0    0    0  501 -0.00000000000E+00 -0.00000000000E+00 -0.50256691281E+03  0.50256691281E+03  0.00000000000E+00 0.  1.
         25    2    1    2    0    0  0.73107470474E+02  0.55490870712E+02 -0.31855826673E+03  0.35430045038E+03  0.12500200346E+03 0.  0.
         23    2    1    2    0    0 -0.73107470474E+02 -0.55490870712E+02 -0.14063985096E+03  0.19163525756E+03  0.92306908138E+02 0.  0.
          5    1    3    3  502    0  0.67345167933E+02  0.93910482070E+02 -0.24712906416E+03  0.27285420033E+03  0.47000000000E+01 0.  1.
         -5    1    3    3    0  502  0.57623025409E+01 -0.38419611358E+02 -0.71429202569E+02  0.81446250049E+02  0.47000000000E+01 0.  1.
          5    1    4    4  503    0 -0.35958952411E+02 -0.66843395422E+02 -0.13078191138E+03  0.15128477820E+03  0.47000000000E+01 0. -1.
         -5    1    4    4    0  503 -0.37148518064E+02  0.11352524710E+02 -0.98579395738E+01  0.40350479356E+02  0.47000000000E+01 0.  1.
<mgrwt>
<rscale>  0 0.14843727E+03</rscale>
<asrwt>0</asrwt>
<pdfrwt beam="1">  1        3 0.66721222E-02 0.15507882E+03</pdfrwt>
<pdfrwt beam="2">  1       -3 0.77317988E-01 0.15507882E+03</pdfrwt>
<totfact> 0.54410056E+02</totfact>
</mgrwt>
</event>
<event>
 8    1  0.3551276E-004  0.1309307E+03  0.7546771E-02  0.1239611E+00
         -4   -1    0    0    0  501 -0.00000000000E+00  0.00000000000E+00  0.76364678637E+02  0.76364678637E+02  0.00000000000E+00 0. -1.
          4   -1    0    0  501    0  0.00000000000E+00 -0.00000000000E+00 -0.17920039085E+03  0.17920039085E+03  0.00000000000E+00 0.  1.
         25    2    1    2    0    0  0.38933661179E+02 -0.14665766344E+01 -0.35311750871E+02  0.13560887397E+03  0.12499946452E+03 0.  0.
         23    2    1    2    0    0 -0.38933661179E+02  0.14665766344E+01 -0.67523961346E+02  0.11995619552E+03  0.91170294883E+02 0.  0.
          5    1    3    3  502    0 -0.11925252458E+02  0.37762953983E+02  0.25252812529E+02  0.47202191478E+02  0.47000000000E+01 0. -1.
         -5    1    4    4    0  503 -0.61862816133E+02  0.20352461965E+02 -0.60626081292E+02  0.89100182159E+02  0.47000000000E+01 0.  1.
          5    1    4    4  503    0  0.22929154954E+02 -0.18885885330E+02 -0.68978800539E+01  0.30856013366E+02  0.47000000000E+01 0. -1.
         -5    1    3    3    0  502  0.50858913637E+02 -0.39229530617E+02 -0.60564563400E+02  0.88406682488E+02  0.47000000000E+01 0. -1.
<mgrwt>
<rscale>  0 0.12213786E+03</rscale>
<asrwt>0</asrwt>
<pdfrwt beam="1">  1        4 0.27569291E-01 0.13093070E+03</pdfrwt>
<pdfrwt beam="2">  1       -4 0.11748412E-01 0.13093070E+03</pdfrwt>
<totfact> 0.11766956E+03</totfact>
</mgrwt>
</event>
<event>
 8    1  0.3551276E-004  0.2008012E+03  0.7546771E-02  0.1152030E+00
         -1   -1    0    0    0  501 -0.00000000000E+00  0.00000000000E+00  0.44094883312E+02  0.44094883312E+02  0.00000000000E+00 0.  1.
          1   -1    0    0  501    0  0.00000000000E+00 -0.00000000000E+00 -0.87652814769E+03  0.87652814769E+03  0.00000000000E+00 0. -1.
         25    2    1    2    0    0  0.15060485263E+03  0.44882362624E+02 -0.35584093656E+03  0.40858770529E+03  0.12499957070E+03 0.  0.
         23    2    1    2    0    0 -0.15060485263E+03 -0.44882362624E+02 -0.47659232782E+03  0.51203532571E+03  0.10170388257E+03 0.  0.
          5    1    4    4  502    0 -0.12592037562E+03 -0.59232065395E+02 -0.45528658740E+03  0.47610119222E+03  0.47000000000E+01 0. -1.
         -5    1    4    4    0  502 -0.24684477014E+02  0.14349702771E+02 -0.21305740424E+02  0.35934133496E+02  0.47000000000E+01 0.  1.
          5    1    3    3  503    0  0.34875624633E+02  0.38022639387E+02 -0.24096338868E+02  0.57138024523E+02  0.47000000000E+01 0.  1.
         -5    1    3    3    0  503  0.11572922800E+03  0.68597232373E+01 -0.33174459769E+03  0.35144968077E+03  0.47000000000E+01 0.  1.
<mgrwt>
<rscale>  0 0.19730823E+03</rscale>
<asrwt>0</asrwt>
<pdfrwt beam="1">  1        1 0.13485049E+00 0.20080125E+03</pdfrwt>
<pdfrwt beam="2">  1       -1 0.67838280E-02 0.20080125E+03</pdfrwt>
<totfact> 0.21991901E+03</totfact>
</mgrwt>
</event>
<event>
 8    1  0.3551276E-004  0.1329348E+03  0.7546771E-02  0.1234601E+00
          2   -1    0    0  501    0  0.00000000000E+00  0.00000000000E+00  0.16644108522E+03  0.16644108522E+03  0.00000000000E+00 0. -1.
         -2   -1    0    0    0  501 -0.00000000000E+00 -0.00000000000E+00 -0.13964870322E+03  0.13964870322E+03  0.00000000000E+00 0.  1.
         25    2    1    2    0    0 -0.20918169619E+02 -0.40118477477E+02  0.10970567559E+03  0.17235720611E+03  0.12499843673E+03 0.  0.
         23    2    1    2    0    0  0.20918169619E+02  0.40118477477E+02 -0.82913293600E+02  0.13373258234E+03  0.94671681444E+02 0.  0.
          5    1    3    3  502    0 -0.57559279438E+02 -0.55061634142E+02  0.33859561986E+02  0.86679952363E+02  0.47000000000E+01 0. -1.
         -5    1    3    3    0  502  0.36641109819E+02  0.14943156665E+02  0.75846113607E+02  0.85677253745E+02  0.47000000000E+01 0. -1.
          5    1    4    4  503    0  0.63281091252E+01 -0.30493215005E+02 -0.34730354567E+02  0.46884631328E+02  0.47000000000E+01 0. -1.
         -5    1    4    4    0  503  0.14590060493E+02  0.70611692482E+02 -0.48182939033E+02  0.86847951008E+02  0.47000000000E+01 0.  1.
<mgrwt>
<rscale>  0 0.12530012E+03</rscale>
<asrwt>0</asrwt>
<pdfrwt beam="1">  1        2 0.25606321E-01 0.13293484E+03</pdfrwt>
<pdfrwt beam="2">  1       -2 0.21484416E-01 0.13293484E+03</pdfrwt>
<totfact> 0.37301982E+03</totfact>
</mgrwt>
</event>
<event>
 8    1  0.3551276E-004  0.1473363E+03  0.7546771E-02  0.1213614E+00
         -2   -1    0    0    0  501 -0.00000000000E+00  0.00000000000E+00  0.25655140355E+02  0.25655140355E+02  0.00000000000E+00 0.  1.
          2   -1    0    0  501    0  0.00000000000E+00 -0.00000000000E+00 -0.69784945667E+03  0.69784945667E+03  0.00000000000E+00 0. -1.
         25    2    1    2    0    0 -0.73325889530E+02  0.26578604363E+02 -0.40031673061E+03  0.42656943185E+03  0.12499954838E+03 0.  0.
         23    2    1    2    0    0  0.73325889530E+02 -0.26578604363E+02 -0.27187758571E+03  0.29693516518E+03  0.90387844449E+02 0.  0.
          5    1    4    4  502    0 -0.32613291757E+01 -0.40815695408E+02 -0.10065775036E+03  0.10876869939E+03  0.47000000000E+01 0. -1.
         -5    1    4    4    0  502  0.76587218706E+02  0.14237091045E+02 -0.17121983535E+03  0.18816646579E+03  0.47000000000E+01 0.  1.
          5    1    3    3  503    0 -0.49709992298E+02  0.48630038632E+02 -0.86630705796E+02  0.11118872775E+03  0.47000000000E+01 0. -1.
         -5    1    3    3    0  503 -0.23615897232E+02 -0.22051434269E+02 -0.31368602481E+03  0.31538070410E+03  0.47000000000E+01 0. -1.
<mgrwt>
<rscale>  0 0.13978834E+03</rscale>
<asrwt>0</asrwt>
<pdfrwt beam="1">  1        2 0.10736144E+00 0.14733633E+03</pdfrwt>
<pdfrwt beam="2">  1       -2 0.39469451E-02 0.14733633E+03</pdfrwt>
<totfact> 0.11342579E+04</totfact>
</mgrwt>
</event>
<event>
 8    1  0.3551276E-004  0.1287974E+03  0.7546771E-02  0.1243240E+00
          1   -1    0    0  501    0  0.00000000000E+00  0.00000000000E+00  0.19047499983E+03  0.19047499983E+03  0.00000000000E+00 0. -1.
         -1   -1    0    0    0  501 -0.00000000000E+00 -0.00000000000E+00 -0.10495591018E+03  0.10495591018E+03  0.00000000000E+00 0.  1.
         25    2    1    2    0    0  0.26743550679E+02 -0.15802271576E+02 -0.41889270064E+02  0.13543811290E+03  0.12499536868E+03 0.  0.
         23    2    1    2    0    0 -0.26743550679E+02  0.15802271576E+02  0.12740835971E+03  0.15999279711E+03  0.91650835854E+02 0.  0.
          5    1    4    4  502    0 -0.23665544185E+02 -0.15355201423E+02  0.12501266875E+03  0.12824233911E+03  0.47000000000E+01 0. -1.
         -5    1    3    3    0  503  0.74545951682E+02  0.38496184014E+01 -0.12603037115E+02  0.75847511618E+02  0.47000000000E+01 0.  1.
          5    1    3    3  503    0 -0.47802401003E+02 -0.19651889978E+02 -0.29286232948E+02  0.59590601286E+02  0.47000000000E+01 0.  1.
         -5    1    4    4    0  502 -0.30780064943E+01  0.31157473000E+02  0.23956909553E+01  0.31750457995E+02  0.47000000000E+01 0.  1.
<mgrwt>
<rscale>  0 0.11991339E+03</rscale>
<asrwt>0</asrwt>
<pdfrwt beam="1">  1        1 0.29303846E-01 0.12879740E+03</pdfrwt>
<pdfrwt beam="2">  1       -1 0.16147063E-01 0.12879740E+03</pdfrwt>
<totfact> 0.42633865E+03</totfact>
</mgrwt>
</event>
<event>
 8    1  0.3551276E-004  0.1957760E+03  0.7546771E-02  0.1157830E+00
          2   -1    0    0  501    0  0.00000000000E+00  0.00000000000E+00  0.58062239898E+02  0.58062239898E+02  0.00000000000E+00 0. -1.
         -2   -1    0    0    0  501 -0.00000000000E+00 -0.00000000000E+00 -0.62239040653E+03  0.62239040653E+03  0.00000000000E+00 0.  1.
         25    2    1    2    0    0 -0.12112634363E+03  0.89588766258E+02 -0.22629362631E+03  0.29922742909E+03  0.12502204147E+03 0.  0.
         23    2    1    2    0    0  0.12112634363E+03 -0.89588766258E+02 -0.33803454032E+03  0.38122521733E+03  0.91474464859E+02 0.  0.
          5    1    3    3  502    0 -0.16014286295E+02  0.64516765963E+02 -0.15755898164E+03  0.17107247924E+03  0.47000000000E+01 0. -1.
         -5    1    3    3    0  502 -0.10511205733E+03  0.25072000295E+02 -0.68734644666E+02  0.12815494986E+03  0.47000000000E+01 0. -1.
          5    1    4    4  503    0 -0.12639197474E+02 -0.23022364748E+02 -0.55570427298E+02  0.61643661324E+02  0.47000000000E+01 0. -1.
         -5    1    4    4    0  503  0.13376554110E+03 -0.66566401510E+02 -0.28246411302E+03  0.31958155601E+03  0.47000000000E+01 0.  1.
<mgrwt>
<rscale>  0 0.19070149E+03</rscale>
<asrwt>0</asrwt>
<pdfrwt beam="1">  1        2 0.89326521E-02 0.19577602E+03</pdfrwt>
<pdfrwt beam="2">  1       -2 0.95752372E-01 0.19577602E+03</pdfrwt>
<totfact> 0.69482656E+02</totfact>
</mgrwt>
</event>
<event>
 8    1  0.3551276E-004  0.1503672E+03  0.7546771E-02  0.1209508E+00
         -2   -1    0    0    0  501 -0.00000000000E+00  0.00000000000E+00  0.40829771694E+02  0.40829771694E+02  0.00000000000E+00 0.  1.
          2   -1    0    0  501    0  0.00000000000E+00 -0.00000000000E+00 -0.61566430237E+03  0.61566430237E+03  0.00000000000E+00 0. -1.
         25    2    1    2    0    0 -0.39415336682E+02 -0.73703699364E+02 -0.47553924531E+03  0.49874628749E+03  0.12499792553E+03 0.  0.
         23    2    1    2    0    0  0.39415336682E+02  0.73703699364E+02 -0.99295285368E+02  0.15774778658E+03  0.89660506405E+02 0.  0.
          5    1    3    3  502    0 -0.58124403517E+02  0.14475553475E+02 -0.19389800232E+03  0.20299387487E+03  0.47000000000E+01 0. -1.
         -5    1    4    4    0  503  0.43486604512E+02 -0.27381389847E+01 -0.50416406285E+02  0.66801842787E+02  0.47000000000E+01 0.  1.
          5    1    4    4  503    0 -0.40712678299E+01  0.76441838349E+02 -0.48878879083E+02  0.90945943793E+02  0.47000000000E+01 0. -1.
         -5    1    3    3    0  502  0.18709066835E+02 -0.88179252840E+02 -0.28164124299E+03  0.29575241261E+03  0.47000000000E+01 0. -1.
<mgrwt>
<rscale>  0 0.14287817E+03</rscale>
<asrwt>0</asrwt>
<pdfrwt beam="1">  1        2 0.94717576E-01 0.15036717E+03</pdfrwt>
<pdfrwt beam="2">  1       -2 0.62815039E-02 0.15036717E+03</pdfrwt>
<totfact> 0.65329858E+03</totfact>
</mgrwt>
</event>
<event>
 8    1  0.3551276E-004  0.1989991E+03  0.7546771E-02  0.1154515E+00
          2   -1    0    0  501    0  0.00000000000E+00  0.00000000000E+00  0.40545979672E+03  0.40545979672E+03  0.00000000000E+00 0. -1.
         -2   -1    0    0    0  501 -0.00000000000E+00 -0.00000000000E+00 -0.97999618844E+02  0.97999618844E+02  0.00000000000E+00 0.  1.
         25    2    1    2    0    0  0.34113213612E+02  0.15103469400E+03  0.23550143732E+03  0.30832056908E+03  0.12500182479E+03 0.  0.
         23    2    1    2    0    0 -0.34113213612E+02 -0.15103469400E+03  0.71958740558E+02  0.19513884649E+03  0.94477081510E+02 0.  0.
          5    1    4    4  502    0 -0.50866278027E+02 -0.56761274231E+02  0.18730121470E+01  0.76385984756E+02  0.47000000000E+01 0. -1.
         -5    1    4    4    0  502  0.16753064415E+02 -0.94273419772E+02  0.70085728411E+02  0.11875286173E+03  0.47000000000E+01 0.  1.
          5    1    3    3  503    0  0.15015583431E+02  0.16866812921E+03  0.22010620113E+03  0.27774671075E+03  0.47000000000E+01 0. -1.
         -5    1    3    3    0  503  0.19097630182E+02 -0.17633435203E+02  0.15395236185E+02  0.30573858324E+02  0.47000000000E+01 0. -1.
<mgrwt>
<rscale>  0 0.19444182E+03</rscale>
<asrwt>0</asrwt>
<pdfrwt beam="1">  1        2 0.62378429E-01 0.19899911E+03</pdfrwt>
<pdfrwt beam="2">  1       -2 0.15076865E-01 0.19899911E+03</pdfrwt>
<totfact> 0.26360994E+03</totfact>
</mgrwt>
</event>
<event>
 8    1  0.3551276E-004  0.1271468E+03  0.7546771E-02  0.1247902E+00
         -2   -1    0    0    0  501 -0.00000000000E+00  0.00000000000E+00  0.34397515990E+02  0.34397515990E+02  0.00000000000E+00 0.  1.
          2   -1    0    0  501    0  0.00000000000E+00 -0.00000000000E+00 -0.38022107411E+03  0.38022107411E+03  0.00000000000E+00 0. -1.
         25    2    1    2    0    0  0.43058088721E+01  0.22989522360E+02 -0.25849772712E+03  0.28807530621E+03  0.12497699386E+03 0.  0.
         23    2    1    2    0    0 -0.43058088721E+01 -0.22989522360E+02 -0.87325830991E+02  0.12654328388E+03  0.88545715926E+02 0.  0.
          5    1    3    3  502    0  0.33487636567E+02  0.50880379082E+02 -0.23115939331E+03  0.23909619381E+03  0.47000000000E+01 0.  1.
         -5    1    3    3    0  502 -0.29181827695E+02 -0.27890856721E+02 -0.27338333815E+02  0.48979112406E+02  0.47000000000E+01 0.  1.
          5    1    4    4  503    0  0.52467852515E+01 -0.46464399062E+02 -0.89070562916E+02  0.10070811444E+03  0.47000000000E+01 0. -1.
         -5    1    4    4    0  503 -0.95525941235E+01  0.23474876701E+02  0.17447319257E+01  0.25835169442E+02  0.47000000000E+01 0.  1.
<mgrwt>
<rscale>  0 0.11713387E+03</rscale>
<asrwt>0</asrwt>
<pdfrwt beam="1">  1        2 0.58495551E-01 0.12714679E+03</pdfrwt>
<pdfrwt beam="2">  1       -2 0.52919254E-02 0.12714679E+03</pdfrwt>
<totfact> 0.14208027E+04</totfact>
</mgrwt>
</event>
<event>
 8    1  0.3551276E-004  0.1454371E+03  0.7546771E-02  0.1215571E+00
         -1   -1    0    0    0  501 -0.00000000000E+00  0.00000000000E+00  0.38490680528E+02  0.38490680528E+02  0.00000000000E+00 0.  1.
          1   -1    0    0  501    0  0.00000000000E+00 -0.00000000000E+00 -0.50450468263E+03  0.50450468263E+03  0.00000000000E+00 0. -1.
         25    2    1    2    0    0  0.33201992370E+02 -0.66510595061E+02 -0.33903512679E+03  0.36891296379E+03  0.12500370435E+03 0.  0.
         23    2    1    2    0    0 -0.33201992370E+02  0.66510595061E+02 -0.12697887531E+03  0.17408239937E+03  0.93032335465E+02 0.  0.
          5    1    3    3  502    0 -0.43691583170E+02 -0.29541467291E+02 -0.18872610898E+03  0.19601348663E+03  0.47000000000E+01 0. -1.
         -5    1    4    4    0  503  0.25446367235E+02  0.37853397278E+02 -0.23190662787E+02  0.51383792497E+02  0.47000000000E+01 0.  1.
          5    1    4    4  503    0 -0.58648359606E+02  0.28657197783E+02 -0.10378821252E+03  0.12269860687E+03  0.47000000000E+01 0. -1.
         -5    1    3    3    0  502  0.76893575540E+02 -0.36969127770E+02 -0.15030901781E+03  0.17289947716E+03  0.47000000000E+01 0. -1.
<mgrwt>
<rscale>  0 0.13834708E+03</rscale>
<asrwt>0</asrwt>
<pdfrwt beam="1">  1        1 0.77616111E-01 0.14543713E+03</pdfrwt>
<pdfrwt beam="2">  1       -1 0.59216427E-02 0.14543713E+03</pdfrwt>
<totfact> 0.58696969E+03</totfact>
</mgrwt>
</event>
<event>
 8    1  0.3551276E-004  0.1737968E+03  0.7546771E-02  0.1179932E+00
         -2   -1    0    0    0  501 -0.00000000000E+00  0.00000000000E+00  0.82582599142E+03  0.82582599142E+03  0.00000000000E+00 0.  1.
          2   -1    0    0  501    0  0.00000000000E+00 -0.00000000000E+00 -0.32514776641E+02  0.32514776641E+02  0.00000000000E+00 0. -1.
         25    2    1    2    0    0 -0.43574140536E+02 -0.11261213928E+03  0.37437991050E+03  0.41275373376E+03  0.12500051084E+03 0.  0.
         23    2    1    2    0    0  0.43574140536E+02  0.11261213928E+03  0.41893130428E+03  0.44558703430E+03  0.92000911935E+02 0.  0.
          5    1    3    3  502    0  0.36946826119E+02 -0.47833789355E+02  0.77682262849E+02  0.98538131329E+02  0.47000000000E+01 0.  1.
         -5    1    4    4    0  503  0.35465570007E+01  0.67244279525E+02  0.33663665556E+03  0.34333758760E+03  0.47000000000E+01 0.  1.
          5    1    4    4  503    0  0.40027583535E+02  0.45367859752E+02  0.82294648720E+02  0.10224944670E+03  0.47000000000E+01 0. -1.
         -5    1    3    3    0  502 -0.80520966655E+02 -0.64778349922E+02  0.29669764765E+03  0.31421560243E+03  0.47000000000E+01 0.  1.
<mgrwt>
<rscale>  0 0.16801650E+03</rscale>
<asrwt>0</asrwt>
<pdfrwt beam="1">  1        2 0.50022739E-02 0.17379680E+03</pdfrwt>
<pdfrwt beam="2">  1       -2 0.12705014E+00 0.17379680E+03</pdfrwt>
<totfact> 0.74640449E+02</totfact>
</mgrwt>
</event>
<event>
 8    1  0.3551276E-004  0.1343599E+03  0.7546771E-02  0.1233081E+00
          1   -1    0    0  501    0  0.00000000000E+00  0.00000000000E+00  0.33142979353E+03  0.33142979353E+03  0.00000000000E+00 0. -1.
         -1   -1    0    0    0  501 -0.00000000000E+00 -0.00000000000E+00 -0.43440201836E+02  0.43440201836E+02  0.00000000000E+00 0.  1.
         25    2    1    2    0    0  0.36957287478E+02  0.32605606224E+02  0.17658478131E+03  0.22188911169E+03  0.12499450484E+03 0.  0.
         23    2    1    2    0    0 -0.36957287478E+02 -0.32605606224E+02  0.11140481038E+03  0.15298088368E+03  0.92537302420E+02 0.  0.
          5    1    4    4  502    0  0.19809998328E+02 -0.24845929008E+02  0.82711887188E+02  0.88730504925E+02  0.47000000000E+01 0. -1.
         -5    1    3    3    0  503  0.10329750567E+02 -0.47777757863E+02  0.56224480616E+02  0.74650519849E+02  0.47000000000E+01 0. -1.
          5    1    3    3  503    0  0.26627536911E+02  0.80383364087E+02  0.12036030069E+03  0.14723859184E+03  0.47000000000E+01 0. -1.
         -5    1    4    4    0  502 -0.56767285806E+02 -0.77596772168E+01  0.28692923196E+02  0.64250378753E+02  0.47000000000E+01 0.  1.
<mgrwt>
<rscale>  0 0.12628086E+03</rscale>
<asrwt>0</asrwt>
<pdfrwt beam="1">  1        1 0.50989197E-01 0.13435994E+03</pdfrwt>
<pdfrwt beam="2">  1       -1 0.66831082E-02 0.13435994E+03</pdfrwt>
<totfact> 0.83096839E+03</totfact>
</mgrwt>
</event>
<event>
 8    1  0.3551276E-004  0.1285862E+03  0.7546771E-02  0.1244304E+00
          1   -1    0    0  501    0  0.00000000000E+00  0.00000000000E+00  0.39214025317E+02  0.39214025317E+02  0.00000000000E+00 0.  1.
         -1   -1    0    0    0  501 -0.00000000000E+00 -0.00000000000E+00 -0.33190472639E+03  0.33190472639E+03  0.00000000000E+00 0. -1.
         25    2    1    2    0    0 -0.28285996876E+02 -0.10264655715E+02 -0.20323411113E+03  0.24049637529E+03  0.12501576631E+03 0.  0.
         23    2    1    2    0    0  0.28285996876E+02  0.10264655715E+02 -0.89456589947E+02  0.13062237642E+03  0.90300957689E+02 0.  0.
          5    1    4    4  502    0  0.38254586575E+02 -0.21975618572E+02 -0.85494238945E+02  0.96320797850E+02  0.47000000000E+01 0. -1.
         -5    1    3    3    0  503 -0.60965831034E+02  0.29020251460E+02 -0.15877509395E+03  0.17259961763E+03  0.47000000000E+01 0. -1.
          5    1    3    3  503    0  0.32679834158E+02 -0.39284907175E+02 -0.44459017179E+02  0.67896757661E+02  0.47000000000E+01 0. -1.
         -5    1    4    4    0  502 -0.99685896996E+01  0.32240274287E+02 -0.39623510017E+01  0.34301578566E+02  0.47000000000E+01 0.  1.
<mgrwt>
<rscale>  0 0.11927105E+03</rscale>
<asrwt>0</asrwt>
<pdfrwt beam="1">  1        1 0.60329270E-02 0.12858617E+03</pdfrwt>
<pdfrwt beam="2">  1       -1 0.51062266E-01 0.12858617E+03</pdfrwt>
<totfact> 0.48186837E+03</totfact>
</mgrwt>
</event>
<event>
 8    1  0.3551276E-004  0.1546185E+03  0.7546771E-02  0.1203985E+00
         -1   -1    0    0    0  501 -0.00000000000E+00  0.00000000000E+00  0.41510240560E+02  0.41510240560E+02  0.00000000000E+00 0.  1.
          1   -1    0    0  501    0  0.00000000000E+00 -0.00000000000E+00 -0.55875308413E+03  0.55875308413E+03  0.00000000000E+00 0. -1.
         25    2    1    2    0    0 -0.20735764234E+02  0.88609257735E+02 -0.39438095487E+03  0.42360737668E+03  0.12500119816E+03 0.  0.
         23    2    1    2    0    0  0.20735764234E+02 -0.88609257735E+02 -0.12286188870E+03  0.17665594801E+03  0.88491286559E+02 0.  0.
          5    1    4    4  502    0 -0.33740150141E+02 -0.47126208566E+02 -0.60657275699E+02  0.84027807067E+02  0.47000000000E+01 0. -1.
         -5    1    4    4    0  502  0.54475914376E+02 -0.41483049169E+02 -0.62204613000E+02  0.92628140940E+02  0.47000000000E+01 0.  1.
          5    1    3    3  503    0 -0.42833726819E+02  0.92348141909E+02 -0.38599494658E+03  0.39922061100E+03  0.47000000000E+01 0. -1.
         -5    1    3    3    0  503  0.22097962585E+02 -0.37388841744E+01 -0.83860082978E+01  0.24386765682E+02  0.47000000000E+01 0. -1.
<mgrwt>
<rscale>  0 0.14717724E+03</rscale>
<asrwt>0</asrwt>
<pdfrwt beam="1">  1        1 0.85962008E-01 0.15461847E+03</pdfrwt>
<pdfrwt beam="2">  1       -1 0.63861912E-02 0.15461847E+03</pdfrwt>
<totfact> 0.45933705E+03</totfact>
</mgrwt>
</event>
<event>
 8    1  0.3551276E-004  0.1605497E+03  0.7546771E-02  0.1195310E+00
         -2   -1    0    0    0  501 -0.00000000000E+00  0.00000000000E+00  0.40794428817E+02  0.40794428817E+02  0.00000000000E+00 0.  1.
          2   -1    0    0  501    0  0.00000000000E+00 -0.00000000000E+00 -0.59522998986E+03  0.59522998986E+03  0.00000000000E+00 0. -1.
         25    2    1    2    0    0 -0.54456674832E+02 -0.84762447144E+02 -0.20266314365E+03  0.25855088438E+03  0.12500403250E+03 0.  0.
         23    2    1    2    0    0  0.54456674832E+02  0.84762447144E+02 -0.35177241740E+03  0.37747353430E+03  0.92694301730E+02 0.  0.
          5    1    4    4  502    0  0.39048420175E+02  0.59850213865E+02 -0.94883410031E+02  0.11887715810E+03  0.47000000000E+01 0. -1.
         -5    1    3    3    0  503  0.27009125420E+02 -0.23291489111E+02 -0.53654931257E+01  0.36371208908E+02  0.47000000000E+01 0. -1.
          5    1    3    3  503    0 -0.81465800251E+02 -0.61470958033E+02 -0.19729765052E+03  0.22217967547E+03  0.47000000000E+01 0. -1.
         -5    1    4    4    0  502  0.15408254657E+02  0.24912233279E+02 -0.25688900737E+03  0.25859637620E+03  0.47000000000E+01 0.  1.
<mgrwt>
<rscale>  0 0.15428027E+03</rscale>
<asrwt>0</asrwt>
<pdfrwt beam="1">  1        2 0.91573830E-01 0.16054971E+03</pdfrwt>
<pdfrwt beam="2">  1       -2 0.62760670E-02 0.16054971E+03</pdfrwt>
<totfact> 0.68235777E+03</totfact>
</mgrwt>
</event>
<event>
 8    1  0.3551276E-004  0.1619142E+03  0.7546771E-02  0.1193553E+00
          1   -1    0    0  501    0  0.00000000000E+00  0.00000000000E+00  0.10030378977E+04  0.10030378977E+04  0.00000000000E+00 0. -1.
         -1   -1    0    0    0  501 -0.00000000000E+00 -0.00000000000E+00 -0.29686897205E+02  0.29686897205E+02  0.00000000000E+00 0.  1.
         25    2    1    2    0    0 -0.59277486788E+02  0.84137151005E+02  0.76821130358E+03  0.78508905326E+03  0.12499333573E+03 0.  0.
         23    2    1    2    0    0  0.59277486788E+02 -0.84137151005E+02  0.20513969692E+03  0.24763574165E+03  0.92996154072E+02 0.  0.
          5    1    3    3  502    0  0.33897057457E+02  0.22561659149E+02  0.10869408556E+03  0.11616597265E+03  0.47000000000E+01 0. -1.
         -5    1    3    3    0  502 -0.93174544245E+02  0.61575491856E+02  0.65951721802E+03  0.66892308060E+03  0.47000000000E+01 0. -1.
          5    1    4    4  503    0  0.39943543167E+02  0.13242185239E+00  0.23924953687E+02  0.46797410027E+02  0.47000000000E+01 0.  1.
         -5    1    4    4    0  503  0.19333943621E+02 -0.84269572858E+02  0.18121474323E+03  0.20083833162E+03  0.47000000000E+01 0. -1.
<mgrwt>
<rscale>  0 0.15577317E+03</rscale>
<asrwt>0</asrwt>
<pdfrwt beam="1">  1        1 0.15431350E+00 0.16191422E+03</pdfrwt>
<pdfrwt beam="2">  1       -1 0.45672157E-02 0.16191422E+03</pdfrwt>
<totfact> 0.31705522E+03</totfact>
</mgrwt>
</event>
<event>
 8    1  0.3551276E-004  0.1296236E+03  0.7546771E-02  0.1241408E+00
          1   -1    0    0  501    0  0.00000000000E+00  0.00000000000E+00  0.14215121683E+03  0.14215121683E+03  0.00000000000E+00 0. -1.
         -1   -1    0    0    0  501 -0.00000000000E+00 -0.00000000000E+00 -0.10535023055E+03  0.10535023055E+03  0.00000000000E+00 0.  1.
         25    2    1    2    0    0  0.34030911872E+02 -0.43970897163E+01 -0.23865513717E+02  0.13180230929E+03  0.12499939451E+03 0.  0.
         23    2    1    2    0    0 -0.34030911872E+02  0.43970897163E+01  0.60666499993E+02  0.11569913808E+03  0.92349493614E+02 0.  0.
          5    1    4    4  502    0  0.21721113118E+02  0.29649959834E+02  0.25097909440E+02  0.44754015815E+02  0.47000000000E+01 0. -1.
         -5    1    4    4    0  502 -0.55752024990E+02 -0.25252870118E+02  0.35568590552E+02  0.70945122268E+02  0.47000000000E+01 0.  1.
          5    1    3    3  503    0  0.10685172558E+02  0.59577089702E+02 -0.17825856525E+02  0.63272851135E+02  0.47000000000E+01 0. -1.
         -5    1    3    3    0  503  0.23345739314E+02 -0.63974179418E+02 -0.60396571924E+01  0.68529458157E+02  0.47000000000E+01 0. -1.
<mgrwt>
<rscale>  0 0.12102983E+03</rscale>
<asrwt>0</asrwt>
<pdfrwt beam="1">  1        1 0.21869418E-01 0.12962363E+03</pdfrwt>
<pdfrwt beam="2">  1       -1 0.16207728E-01 0.12962363E+03</pdfrwt>
<totfact> 0.61170983E+03</totfact>
</mgrwt>
</event>
<event>
 8    1  0.3551276E-004  0.1679170E+03  0.7546771E-02  0.1188050E+00
          2   -1    0    0  501    0  0.00000000000E+00  0.00000000000E+00  0.10669357239E+04  0.10669357239E+04  0.00000000000E+00 0. -1.
         -2   -1    0    0    0  501 -0.00000000000E+00 -0.00000000000E+00 -0.22290862961E+02  0.22290862961E+02  0.00000000000E+00 0.  1.
         25    2    1    2    0    0  0.10698109618E+03  0.33569079826E+02  0.55513804125E+03  0.57997789147E+03  0.12499708672E+03 0.  0.
         23    2    1    2    0    0 -0.10698109618E+03 -0.33569079826E+02  0.48950681969E+03  0.50924869540E+03  0.84530877071E+02 0.  0.
          5    1    4    4  502    0 -0.54965525146E+02 -0.28846572474E+01  0.38095717662E+03  0.38494154182E+03  0.47000000000E+01 0. -1.
         -5    1    3    3    0  503 -0.14901931834E+02 -0.15698752577E+02  0.23445606509E+02  0.32253757446E+02  0.47000000000E+01 0. -1.
          5    1    3    3  503    0  0.12188302801E+03  0.49267832403E+02  0.53169243474E+03  0.54772413402E+03  0.47000000000E+01 0. -1.
         -5    1    4    4    0  502 -0.52015571034E+02 -0.30684422579E+02  0.10854964308E+03  0.12430715358E+03  0.47000000000E+01 0.  1.
<mgrwt>
<rscale>  0 0.16057462E+03</rscale>
<asrwt>0</asrwt>
<pdfrwt beam="1">  1        2 0.16414392E+00 0.16791697E+03</pdfrwt>
<pdfrwt beam="2">  1       -2 0.34293644E-02 0.16791697E+03</pdfrwt>
<totfact> 0.81124039E+03</totfact>
</mgrwt>
</event>
<event>
 8    1  0.3551276E-004  0.1425521E+03  0.7546771E-02  0.1220773E+00
         -1   -1    0    0    0  501 -0.00000000000E+00  0.00000000000E+00  0.65260863410E+02  0.65260863410E+02  0.00000000000E+00 0.  1.
          1   -1    0    0  501    0  0.00000000000E+00 -0.00000000000E+00 -0.25920038324E+03  0.25920038324E+03  0.00000000000E+00 0. -1.
         25    2    1    2    0    0  0.44448949154E+02 -0.52160413019E+02 -0.13663692397E+03  0.19746077867E+03  0.12499876941E+03 0.  0.
         23    2    1    2    0    0 -0.44448949154E+02  0.52160413019E+02 -0.57302595863E+02  0.12700046798E+03  0.90272441019E+02 0.  0.
          5    1    4    4  502    0 -0.23578520012E+02  0.45976369821E+02 -0.79904461909E+02  0.95271119553E+02  0.47000000000E+01 0. -1.
         -5    1    4    4    0  502 -0.20870429142E+02  0.61840431977E+01  0.22601866046E+02  0.31729348427E+02  0.47000000000E+01 0.  1.
          5    1    3    3  503    0  0.48685394108E+02 -0.90327842082E+02 -0.10990961330E+03  0.15043802628E+03  0.47000000000E+01 0.  1.
         -5    1    3    3    0  503 -0.42364449540E+01  0.38167429063E+02 -0.26727310676E+02  0.47022752398E+02  0.47000000000E+01 0.  1.
<mgrwt>
<rscale>  0 0.13460906E+03</rscale>
<asrwt>0</asrwt>
<pdfrwt beam="1">  1        1 0.39876982E-01 0.14255213E+03</pdfrwt>
<pdfrwt beam="2">  1       -1 0.10040133E-01 0.14255213E+03</pdfrwt>
<totfact> 0.61139422E+03</totfact>
</mgrwt>
</event>
<event>
 8    1  0.3551276E-004  0.1994724E+03  0.7546771E-02  0.1154340E+00
         -1   -1    0    0    0  501 -0.00000000000E+00  0.00000000000E+00  0.25838669154E+02  0.25838669154E+02  0.00000000000E+00 0.  1.
          1   -1    0    0  501    0  0.00000000000E+00 -0.00000000000E+00 -0.16284657974E+04  0.16284657974E+04  0.00000000000E+00 0. -1.
         25    2    1    2    0    0  0.99651355037E+02 -0.11930323380E+03 -0.52516697554E+03  0.56177360377E+03  0.12500230216E+03 0.  0.
         23    2    1    2    0    0 -0.99651355037E+02  0.11930323380E+03 -0.10774601527E+04  0.10925308628E+04  0.92410233738E+02 0.  0.
          5    1    4    4  502    0 -0.84191229468E+02  0.34819148404E+02 -0.66231037851E+03  0.66856388153E+03  0.47000000000E+01 0. -1.
         -5    1    4    4    0  502 -0.15460125569E+02  0.84484085393E+02 -0.41514977418E+03  0.42396698122E+03  0.47000000000E+01 0.  1.
          5    1    3    3  503    0 -0.45768691198E+01  0.22459700630E+02 -0.57441455895E+02  0.62024162539E+02  0.47000000000E+01 0. -1.
         -5    1    3    3    0  503  0.10422822416E+03 -0.14176293443E+03 -0.46772551964E+03  0.49974944123E+03  0.47000000000E+01 0. -1.
<mgrwt>
<rscale>  0 0.19464176E+03</rscale>
<asrwt>0</asrwt>
<pdfrwt beam="1">  1        1 0.25053325E+00 0.19947238E+03</pdfrwt>
<pdfrwt beam="2">  1       -1 0.39751790E-02 0.19947238E+03</pdfrwt>
<totfact> 0.14658803E+03</totfact>
</mgrwt>
</event>
<event>
 8    1  0.3551276E-004  0.1395621E+03  0.7546771E-02  0.1225028E+00
          2   -1    0    0  501    0  0.00000000000E+00  0.00000000000E+00  0.87194633047E+03  0.87194633047E+03  0.00000000000E+00 0. -1.
         -2   -1    0    0    0  501 -0.00000000000E+00 -0.00000000000E+00 -0.21541526316E+02  0.21541526316E+02  0.00000000000E+00 0.  1.
         25    2    1    2    0    0  0.13242560417E+02  0.60630319779E+02  0.64823204413E+03  0.66308548269E+03  0.12500469282E+03 0.  0.
         23    2    1    2    0    0 -0.13242560417E+02 -0.60630319779E+02  0.20217276002E+03  0.23040237410E+03  0.91433188792E+02 0.  0.
          5    1    3    3  502    0 -0.50178888850E+02  0.82561358688E+01  0.16005062046E+03  0.16800111838E+03  0.47000000000E+01 0. -1.
         -5    1    4    4    0  503 -0.25983269757E+02 -0.35382192817E+02  0.24619186911E+02  0.50549225909E+02  0.47000000000E+01 0.  1.
          5    1    4    4  503    0  0.12740709340E+02 -0.25248126962E+02  0.17755357311E+03  0.17985314819E+03  0.47000000000E+01 0. -1.
         -5    1    3    3    0  502  0.63421449266E+02  0.52374183911E+02  0.48818142367E+03  0.49508436431E+03  0.47000000000E+01 0. -1.
<mgrwt>
<rscale>  0 0.13165016E+03</rscale>
<asrwt>0</asrwt>
<pdfrwt beam="1">  1        2 0.13414556E+00 0.13956208E+03</pdfrwt>
<pdfrwt beam="2">  1       -2 0.33140816E-02 0.13956208E+03</pdfrwt>
<totfact> 0.11120464E+04</totfact>
</mgrwt>
</event>
<event>
 8    1  0.3551276E-004  0.2913822E+03  0.7546771E-02  0.1091414E+00
         -2   -1    0    0    0  501 -0.00000000000E+00  0.00000000000E+00  0.16706818520E+03  0.16706818520E+03  0.00000000000E+00 0.  1.
          2   -1    0    0  501    0  0.00000000000E+00 -0.00000000000E+00 -0.48569104320E+03  0.48569104320E+03  0.00000000000E+00 0. -1.
         25    2    1    2    0    0 -0.24321379286E+03 -0.10062996065E+03 -0.15142463080E+03  0.32837937204E+03  0.12499702058E+03 0.  0.
         23    2    1    2    0    0  0.24321379286E+03  0.10062996065E+03 -0.16719822721E+03  0.32437985636E+03  0.89373967190E+02 0.  0.
          5    1    3    3  502    0 -0.11319411874E+03 -0.25786804359E+02 -0.13387089436E+03  0.17726075187E+03  0.47000000000E+01 0.  1.
         -5    1    4    4    0  503  0.90381505716E+02  0.74904037272E+02 -0.40893945434E+02  0.12439387504E+03  0.47000000000E+01 0.  1.
          5    1    4    4  503    0  0.15283228714E+03  0.25725923373E+02 -0.12630428177E+03  0.19998598131E+03  0.47000000000E+01 0. -1.
         -5    1    3    3    0  502 -0.13001967412E+03 -0.74843156286E+02 -0.17553736442E+02  0.15111862017E+03  0.47000000000E+01 0.  1.
<mgrwt>
<rscale>  0 0.28796955E+03</rscale>
<asrwt>0</asrwt>
<pdfrwt beam="1">  1        2 0.74721698E-01 0.29138221E+03</pdfrwt>
<pdfrwt beam="2">  1       -2 0.25702798E-01 0.29138221E+03</pdfrwt>
<totfact> 0.87249980E+02</totfact>
</mgrwt>
</event>
<event>
 8    1  0.3551276E-004  0.1357217E+03  0.7546771E-02  0.1231498E+00
         -1   -1    0    0    0  501 -0.00000000000E+00  0.00000000000E+00  0.39497135157E+02  0.39497135157E+02  0.00000000000E+00 0.  1.
          1   -1    0    0  501    0  0.00000000000E+00 -0.00000000000E+00 -0.38853530387E+03  0.38853530387E+03  0.00000000000E+00 0. -1.
         25    2    1    2    0    0 -0.51659947378E+02  0.11267361777E+02 -0.14554095422E+03  0.19900390141E+03  0.12499871926E+03 0.  0.
         23    2    1    2    0    0  0.51659947378E+02 -0.11267361777E+02 -0.20349721449E+03  0.22902853761E+03  0.90814377333E+02 0.  0.
          5    1    3    3  502    0 -0.41240331332E+02 -0.54204966398E+02 -0.85712311000E+02  0.10957934827E+03  0.47000000000E+01 0.  1.
         -5    1    3    3    0  502 -0.10419616046E+02  0.65472328174E+02 -0.59828643222E+02  0.89424553143E+02  0.47000000000E+01 0.  1.
          5    1    4    4  503    0  0.79233351889E+01 -0.22311513135E+02 -0.17229633116E+03  0.17397901767E+03  0.47000000000E+01 0. -1.
         -5    1    4    4    0  503  0.43736612189E+02  0.11044151358E+02 -0.31200883331E+02  0.55049519940E+02  0.47000000000E+01 0.  1.
<mgrwt>
<rscale>  0 0.12731297E+03</rscale>
<asrwt>0</asrwt>
<pdfrwt beam="1">  1        1 0.59774665E-01 0.13572171E+03</pdfrwt>
<pdfrwt beam="2">  1       -1 0.60764821E-02 0.13572171E+03</pdfrwt>
<totfact> 0.78582370E+03</totfact>
</mgrwt>
</event>
<event>
 8    1  0.3551276E-004  0.1443965E+03  0.7546771E-02  0.1217892E+00
          1   -1    0    0  501    0  0.00000000000E+00  0.00000000000E+00  0.52677436602E+03  0.52677436602E+03  0.00000000000E+00 0. -1.
         -1   -1    0    0    0  501 -0.00000000000E+00 -0.00000000000E+00 -0.32380784015E+02  0.32380784015E+02  0.00000000000E+00 0.  1.
         25    2    1    2    0    0  0.26185494670E+02 -0.67373513906E+02  0.25039618900E+03  0.28904772459E+03  0.12500186044E+03 0.  0.
         23    2    1    2    0    0 -0.26185494670E+02  0.67373513906E+02  0.24399739300E+03  0.27010742545E+03  0.90545143345E+02 0.  0.
          5    1    3    3  502    0  0.13219128017E+02 -0.23759524670E+02  0.24071559157E+03  0.24229186198E+03  0.47000000000E+01 0. -1.
         -5    1    3    3    0  502  0.12966366653E+02 -0.43613989236E+02  0.96805974337E+01  0.46755862605E+02  0.47000000000E+01 0. -1.
          5    1    4    4  503    0 -0.23364380877E+02  0.39332768368E+02  0.23599782281E+03  0.24043715048E+03  0.47000000000E+01 0. -1.
         -5    1    4    4    0  503 -0.28211137936E+01  0.28040745538E+02  0.79995701944E+01  0.29670274968E+02  0.47000000000E+01 0.  1.
<mgrwt>
<rscale>  0 0.13666263E+03</rscale>
<asrwt>0</asrwt>
<pdfrwt beam="1">  1        1 0.81042204E-01 0.14439645E+03</pdfrwt>
<pdfrwt beam="2">  1       -1 0.49816595E-02 0.14439645E+03</pdfrwt>
<totfact> 0.71670540E+03</totfact>
</mgrwt>
</event>
<event>
 8    1  0.3551276E-004  0.1409542E+03  0.7546771E-02  0.1222851E+00
         -2   -1    0    0    0  501 -0.00000000000E+00  0.00000000000E+00  0.17543258817E+02  0.17543258817E+02  0.00000000000E+00 0.  1.
          2   -1    0    0  501    0  0.00000000000E+00 -0.00000000000E+00 -0.91511319717E+03  0.91511319717E+03  0.00000000000E+00 0. -1.
         25    2    1    2    0    0  0.65142274174E+02 -0.45108065520E+00 -0.48075893059E+03  0.50099625371E+03  0.12499751009E+03 0.  0.
         23    2    1    2    0    0 -0.65142274174E+02  0.45108065520E+00 -0.41681100776E+03  0.43166020228E+03  0.91407848030E+02 0.  0.
          5    1    4    4  502    0 -0.72070291197E-01 -0.36327655210E+02 -0.11483423038E+03  0.12053503306E+03  0.47000000000E+01 0. -1.
         -5    1    4    4    0  502 -0.65070203882E+02  0.36778735865E+02 -0.30197677738E+03  0.31112516922E+03  0.47000000000E+01 0.  1.
          5    1    3    3  503    0  0.77151401231E+02  0.29947507018E+02 -0.17701294787E+03  0.19546064976E+03  0.47000000000E+01 0. -1.
         -5    1    3    3    0  503 -0.12009127057E+02 -0.30398587674E+02 -0.30374598272E+03  0.30553560395E+03  0.47000000000E+01 0. -1.
<mgrwt>
<rscale>  0 0.13315304E+03</rscale>
<asrwt>0</asrwt>
<pdfrwt beam="1">  1        2 0.14078664E+00 0.14095424E+03</pdfrwt>
<pdfrwt beam="2">  1       -2 0.26989630E-02 0.14095424E+03</pdfrwt>
<totfact> 0.14131066E+04</totfact>
</mgrwt>
</event>
<event>
 8    1  0.3551276E-004  0.2204740E+03  0.7546771E-02  0.1136851E+00
          2   -1    0    0  501    0  0.00000000000E+00  0.00000000000E+00  0.58636699100E+03  0.58636699100E+03  0.00000000000E+00 0. -1.
         -2   -1    0    0    0  501 -0.00000000000E+00 -0.00000000000E+00 -0.16284914629E+03  0.16284914629E+03  0.00000000000E+00 0.  1.
         25    2    1    2    0    0 -0.10720350600E+03  0.14659795477E+03 -0.56756264779E+02  0.22766216809E+03  0.12500094857E+03 0.  0.
         23    2    1    2    0    0  0.10720350600E+03 -0.14659795477E+03  0.48027410949E+03  0.52155396920E+03  0.91497379764E+02 0.  0.
          5    1    3    3  502    0 -0.12994600568E+03  0.92269936211E+02 -0.27736385222E+02  0.16183665403E+03  0.47000000000E+01 0. -1.
         -5    1    4    4    0  503  0.33523892072E+02 -0.10496435447E+03  0.34226378192E+03  0.35959415104E+03  0.47000000000E+01 0.  1.
          5    1    4    4  503    0  0.73679613933E+02 -0.41633600295E+02  0.13801032757E+03  0.16195981816E+03  0.47000000000E+01 0. -1.
         -5    1    3    3    0  502  0.22742499678E+02  0.54328018556E+02 -0.29019879557E+02  0.65825514060E+02  0.47000000000E+01 0. -1.
<mgrwt>
<rscale>  0 0.21606503E+03</rscale>
<asrwt>0</asrwt>
<pdfrwt beam="1">  1        2 0.90210305E-01 0.22047401E+03</pdfrwt>
<pdfrwt beam="2">  1       -2 0.25053715E-01 0.22047401E+03</pdfrwt>
<totfact> 0.73703641E+02</totfact>
</mgrwt>
</event>
<event>
 8    1  0.3551276E-004  0.2300691E+03  0.7546771E-02  0.1129692E+00
          2   -1    0    0  501    0  0.00000000000E+00  0.00000000000E+00  0.15998420599E+04  0.15998420599E+04  0.00000000000E+00 0. -1.
         -2   -1    0    0    0  501 -0.00000000000E+00 -0.00000000000E+00 -0.65969318731E+02  0.65969318731E+02  0.00000000000E+00 0.  1.
         25    2    1    2    0    0  0.89435644117E+02 -0.17119512232E+03  0.13893988447E+04  0.14083184798E+04  0.12500114674E+03 0.  0.
         23    2    1    2    0    0 -0.89435644117E+02  0.17119512232E+03  0.14447389648E+03  0.25749289879E+03  0.90129805399E+02 0.  0.
          5    1    4    4  502    0 -0.82732238248E+02  0.67633027711E+02  0.92110396582E+02  0.14115688025E+03  0.47000000000E+01 0. -1.
         -5    1    3    3    0  503  0.76097346980E+02 -0.87590849215E+02  0.11171927473E+04  0.11232117733E+04  0.47000000000E+01 0. -1.
          5    1    3    3  503    0  0.13338297137E+02 -0.83604273101E+02  0.27220609740E+03  0.28510670654E+03  0.47000000000E+01 0. -1.
         -5    1    4    4    0  502 -0.67034058685E+01  0.10356209460E+03  0.52363499896E+02  0.11633601854E+03  0.47000000000E+01 0.  1.
<mgrwt>
<rscale>  0 0.22571552E+03</rscale>
<asrwt>0</asrwt>
<pdfrwt beam="1">  1        2 0.24612952E+00 0.23006910E+03</pdfrwt>
<pdfrwt beam="2">  1       -2 0.10149127E-01 0.23006910E+03</pdfrwt>
<totfact> 0.78744489E+02</totfact>
</mgrwt>
</event>
<event>
 8    1  0.3551276E-004  0.1445220E+03  0.7546771E-02  0.1217671E+00
         -2   -1    0    0    0  501 -0.00000000000E+00  0.00000000000E+00  0.57452198973E+03  0.57452198973E+03  0.00000000000E+00 0.  1.
          2   -1    0    0  501    0  0.00000000000E+00 -0.00000000000E+00 -0.38572014735E+02  0.38572014735E+02  0.00000000000E+00 0. -1.
         25    2    1    2    0    0 -0.71158294237E+02  0.14064129231E+02  0.43790114298E+03  0.46113339928E+03  0.12500119334E+03 0.  0.
         23    2    1    2    0    0  0.71158294237E+02 -0.14064129231E+02  0.98048832013E+02  0.15196060519E+03  0.90648494195E+02 0.  0.
          5    1    4    4  502    0  0.31802844566E+02  0.32791117272E+02  0.14228617513E+02  0.48075168755E+02  0.47000000000E+01 0. -1.
         -5    1    3    3    0  503 -0.47785618936E+02  0.48241611276E+02  0.39682778876E+03  0.40262277924E+03  0.47000000000E+01 0. -1.
          5    1    3    3  503    0 -0.23372675301E+02 -0.34177482045E+02  0.41073354224E+02  0.58510620035E+02  0.47000000000E+01 0. -1.
         -5    1    4    4    0  502  0.39355449670E+02 -0.46855246503E+02  0.83820214500E+02  0.10388543643E+03  0.47000000000E+01 0.  1.
<mgrwt>
<rscale>  0 0.13682184E+03</rscale>
<asrwt>0</asrwt>
<pdfrwt beam="1">  1        2 0.59341565E-02 0.14452197E+03</pdfrwt>
<pdfrwt beam="2">  1       -2 0.88387992E-01 0.14452197E+03</pdfrwt>
<totfact> 0.13856146E+03</totfact>
</mgrwt>
</event>
<event>
 8    1  0.3551276E-004  0.1327082E+03  0.7546771E-02  0.1236839E+00
         -1   -1    0    0    0  501 -0.00000000000E+00  0.00000000000E+00  0.39854597676E+02  0.39854597676E+02  0.00000000000E+00 0.  1.
          1   -1    0    0  501    0  0.00000000000E+00 -0.00000000000E+00 -0.35689488490E+03  0.35689488490E+03  0.00000000000E+00 0. -1.
         25    2    1    2    0    0 -0.40253458906E+02  0.19106350037E+02 -0.21964001435E+03  0.25661880933E+03  0.12500433525E+03 0.  0.
         23    2    1    2    0    0  0.40253458906E+02 -0.19106350037E+02 -0.97400272870E+02  0.14013067324E+03  0.90357063161E+02 0.  0.
          5    1    3    3  502    0 -0.34288545968E+01  0.21834107048E+02 -0.21820073883E+03  0.21936758580E+03  0.47000000000E+01 0.  1.
         -5    1    3    3    0  502 -0.36824604309E+02 -0.27277570114E+01 -0.14392755282E+01  0.37251223535E+02  0.47000000000E+01 0.  1.
          5    1    4    4  503    0  0.30892818952E+02 -0.45119112323E+02 -0.97730031567E+02  0.11208634899E+03  0.47000000000E+01 0. -1.
         -5    1    4    4    0  503  0.93606399535E+01  0.26012762286E+02  0.32975869710E+00  0.28044324255E+02  0.47000000000E+01 0.  1.
<mgrwt>
<rscale>  0 0.12387412E+03</rscale>
<asrwt>0</asrwt>
<pdfrwt beam="1">  1        1 0.54906905E-01 0.13270824E+03</pdfrwt>
<pdfrwt beam="2">  1       -1 0.61314766E-02 0.13270824E+03</pdfrwt>
<totfact> 0.86106698E+03</totfact>
</mgrwt>
</event>
<event>
 8    1  0.3551276E-004  0.1580978E+03  0.7546771E-02  0.1198860E+00
          2   -1    0    0  501    0  0.00000000000E+00  0.00000000000E+00  0.41431744227E+03  0.41431744227E+03  0.00000000000E+00 0. -1.
         -2   -1    0    0    0  501 -0.00000000000E+00 -0.00000000000E+00 -0.51071193068E+02  0.51071193068E+02  0.00000000000E+00 0.  1.
         25    2    1    2    0    0  0.95731463029E+02 -0.14347833378E+02  0.20486302383E+03  0.25877357372E+03  0.12499812232E+03 0.  0.
         23    2    1    2    0    0 -0.95731463029E+02  0.14347833378E+02  0.15838322537E+03  0.20661506162E+03  0.90742295950E+02 0.  0.
          5    1    4    4  502    0 -0.86739640297E+01  0.35252091922E+02  0.78160059511E+02  0.86307777979E+02  0.47000000000E+01 0. -1.
         -5    1    3    3    0  503  0.33265961616E+02  0.53691215523E+02  0.10532557542E+03  0.12290214670E+03  0.47000000000E+01 0. -1.
          5    1    3    3  503    0  0.62465501413E+02 -0.68039048902E+02  0.99537448414E+02  0.13587142701E+03  0.47000000000E+01 0. -1.
         -5    1    4    4    0  502 -0.87057498999E+02 -0.20904258544E+02  0.80223165856E+02  0.12030728364E+03  0.47000000000E+01 0.  1.
<mgrwt>
<rscale>  0 0.15132036E+03</rscale>
<asrwt>0</asrwt>
<pdfrwt beam="1">  1        2 0.63741143E-01 0.15809777E+03</pdfrwt>
<pdfrwt beam="2">  1       -2 0.78571069E-02 0.15809777E+03</pdfrwt>
<totfact> 0.72050657E+03</totfact>
</mgrwt>
</event>
<event>
 8    1  0.3551276E-004  0.1604908E+03  0.7546771E-02  0.1195766E+00
          1   -1    0    0  501    0  0.00000000000E+00  0.00000000000E+00  0.11037860015E+04  0.11037860015E+04  0.00000000000E+00 0. -1.
         -1   -1    0    0    0  501 -0.00000000000E+00 -0.00000000000E+00 -0.20283664888E+02  0.20283664888E+02  0.00000000000E+00 0.  1.
         25    2    1    2    0    0 -0.59648325417E+02  0.81087612818E+02  0.66625698918E+03  0.68531428848E+03  0.12499669866E+03 0.  0.
         23    2    1    2    0    0  0.59648325417E+02 -0.81087612818E+02  0.41724534740E+03  0.43875537788E+03  0.90991637068E+02 0.  0.
          5    1    4    4  502    0  0.72275714420E+02 -0.24536740481E+02  0.26405497337E+03  0.27490534642E+03  0.47000000000E+01 0. -1.
         -5    1    4    4    0  502 -0.12627389003E+02 -0.56550872338E+02  0.15319037403E+03  0.16385003146E+03  0.47000000000E+01 0.  1.
          5    1    3    3  503    0 -0.78406475161E+02  0.32862617669E+02  0.56624901684E+03  0.57261467503E+03  0.47000000000E+01 0.  1.
         -5    1    3    3    0  503  0.18758149745E+02  0.48224995149E+02  0.10000797235E+03  0.11269961345E+03  0.47000000000E+01 0.  1.
<mgrwt>
<rscale>  0 0.15389589E+03</rscale>
<asrwt>0</asrwt>
<pdfrwt beam="1">  1        1 0.16981318E+00 0.16049080E+03</pdfrwt>
<pdfrwt beam="2">  1       -1 0.31205647E-02 0.16049080E+03</pdfrwt>
<totfact> 0.46976637E+03</totfact>
</mgrwt>
</event>
<event>
 8    1  0.3551276E-004  0.1464503E+03  0.7546771E-02  0.1215023E+00
          1   -1    0    0  501    0  0.00000000000E+00  0.00000000000E+00  0.88828234903E+02  0.88828234903E+02  0.00000000000E+00 0. -1.
         -1   -1    0    0    0  501 -0.00000000000E+00 -0.00000000000E+00 -0.33109170924E+03  0.33109170924E+03  0.00000000000E+00 0.  1.
         25    2    1    2    0    0 -0.45602767718E+02  0.61183198423E+02  0.43704247853E+01  0.14651546063E+03  0.12499873358E+03 0.  0.
         23    2    1    2    0    0  0.45602767718E+02 -0.61183198423E+02 -0.24663389912E+03  0.27340448351E+03  0.89992973153E+02 0.  0.
          5    1    4    4  502    0  0.53124814260E+02  0.19984300652E+01 -0.12851078972E+03  0.13915226440E+03  0.47000000000E+01 0. -1.
         -5    1    4    4    0  502 -0.75220465418E+01 -0.63181628488E+02 -0.11812310940E+03  0.13425221911E+03  0.47000000000E+01 0.  1.
          5    1    3    3  503    0 -0.28701354037E+02 -0.36801550329E+02  0.16646710772E+01  0.46935945287E+02  0.47000000000E+01 0. -1.
         -5    1    3    3    0  503 -0.16901413681E+02  0.97984748752E+02  0.27057537081E+01  0.99579515341E+02  0.47000000000E+01 0. -1.
<mgrwt>
<rscale>  0 0.13874881E+03</rscale>
<asrwt>0</asrwt>
<pdfrwt beam="1">  1        1 0.13665882E-01 0.14645026E+03</pdfrwt>
<pdfrwt beam="2">  1       -1 0.50937186E-01 0.14645026E+03</pdfrwt>
<totfact> 0.16396936E+03</totfact>
</mgrwt>
</event>
<event>
 8    1  0.3551276E-004  0.1671820E+03  0.7546771E-02  0.1187777E+00
         -1   -1    0    0    0  501 -0.00000000000E+00  0.00000000000E+00  0.15719119897E+03  0.15719119897E+03  0.00000000000E+00 0.  1.
          1   -1    0    0  501    0  0.00000000000E+00 -0.00000000000E+00 -0.15884282157E+03  0.15884282157E+03  0.00000000000E+00 0. -1.
         25    2    1    2    0    0  0.17370660433E+02  0.10965926225E+03  0.28923352396E+02  0.16966547876E+03  0.12499168263E+03 0.  0.
         23    2    1    2    0    0 -0.17370660433E+02 -0.10965926225E+03 -0.30574974998E+02  0.14636854179E+03  0.90343938850E+02 0.  0.
          5    1    4    4  502    0  0.12169674776E+02 -0.57496952486E+02 -0.55785627775E+02  0.81167276630E+02  0.47000000000E+01 0. -1.
         -5    1    3    3    0  503 -0.39866077932E+02 -0.14075680534E+00  0.21485050394E+02  0.45530444458E+02  0.47000000000E+01 0. -1.
          5    1    3    3  503    0  0.57236738364E+02  0.10980001906E+03  0.74383020021E+01  0.12413503430E+03  0.47000000000E+01 0. -1.
         -5    1    4    4    0  502 -0.29540335209E+02 -0.52162309769E+02  0.25210652777E+02  0.65201265158E+02  0.47000000000E+01 0.  1.
<mgrwt>
<rscale>  0 0.16081701E+03</rscale>
<asrwt>0</asrwt>
<pdfrwt beam="1">  1        1 0.24437357E-01 0.16718198E+03</pdfrwt>
<pdfrwt beam="2">  1       -1 0.24183261E-01 0.16718198E+03</pdfrwt>
<totfact> 0.28330777E+03</totfact>
</mgrwt>
</event>
<event>
 8    1  0.3551276E-004  0.1422181E+03  0.7546771E-02  0.1221078E+00
          1   -1    0    0  501    0  0.00000000000E+00  0.00000000000E+00  0.32923993839E+03  0.32923993839E+03  0.00000000000E+00 0. -1.
         -1   -1    0    0    0  501 -0.00000000000E+00 -0.00000000000E+00 -0.50972188217E+02  0.50972188217E+02  0.00000000000E+00 0.  1.
         25    2    1    2    0    0 -0.26570368425E+02  0.62393345745E+02  0.12361020762E+03  0.18842897704E+03  0.12500832728E+03 0.  0.
         23    2    1    2    0    0  0.26570368425E+02 -0.62393345745E+02  0.15465754255E+03  0.19178314957E+03  0.90900533103E+02 0.  0.
          5    1    4    4  502    0  0.17310121852E+02 -0.20434671854E+02  0.14495477200E+03  0.14748285343E+03  0.47000000000E+01 0. -1.
         -5    1    3    3    0  503 -0.70110006598E+02  0.56448783049E+01  0.63613773489E+02  0.94953040256E+02  0.47000000000E+01 0. -1.
          5    1    3    3  503    0  0.43539638173E+02  0.56748467440E+02  0.59996434131E+02  0.93475936783E+02  0.47000000000E+01 0. -1.
         -5    1    4    4    0  502  0.92602465733E+01 -0.41958673891E+02  0.97027705585E+01  0.44300296137E+02  0.47000000000E+01 0.  1.
<mgrwt>
<rscale>  0 0.13439374E+03</rscale>
<asrwt>0</asrwt>
<pdfrwt beam="1">  1        1 0.50652297E-01 0.14221813E+03</pdfrwt>
<pdfrwt beam="2">  1       -1 0.78418753E-02 0.14221813E+03</pdfrwt>
<totfact> 0.66138847E+03</totfact>
</mgrwt>
</event>
<event>
 8    1  0.3551276E-004  0.1772994E+03  0.7546771E-02  0.1176236E+00
          2   -1    0    0  501    0  0.00000000000E+00  0.00000000000E+00  0.55477309176E+03  0.55477309176E+03  0.00000000000E+00 0. -1.
         -2   -1    0    0    0  501 -0.00000000000E+00 -0.00000000000E+00 -0.55253762081E+02  0.55253762081E+02  0.00000000000E+00 0.  1.
         25    2    1    2    0    0 -0.12458058413E+03 -0.17033598135E+02  0.16969699399E+03  0.24542241309E+03  0.12499850267E+03 0.  0.
         23    2    1    2    0    0  0.12458058413E+03  0.17033598135E+02  0.32982233569E+03  0.36460444075E+03  0.91340898216E+02 0.  0.
          5    1    4    4  502    0  0.70921416448E+02 -0.36076871651E+02  0.17432622590E+03  0.19168492642E+03  0.47000000000E+01 0. -1.
         -5    1    4    4    0  502  0.53659167684E+02  0.53110469786E+02  0.15549610979E+03  0.17291951433E+03  0.47000000000E+01 0.  1.
          5    1    3    3  503    0 -0.14624750983E+03 -0.21675652113E+02  0.11882640383E+03  0.18973658654E+03  0.47000000000E+01 0. -1.
         -5    1    3    3    0  503  0.21666925702E+02  0.46420539781E+01  0.50870590162E+02  0.55685826545E+02  0.47000000000E+01 0. -1.
<mgrwt>
<rscale>  0 0.17155497E+03</rscale>
<asrwt>0</asrwt>
<pdfrwt beam="1">  1        2 0.85349703E-01 0.17729944E+03</pdfrwt>
<pdfrwt beam="2">  1       -2 0.85005792E-02 0.17729944E+03</pdfrwt>
<totfact> 0.46498644E+03</totfact>
</mgrwt>
</event>
<event>
 8    1  0.3551276E-004  0.1337903E+03  0.7546771E-02  0.1234618E+00
          4   -1    0    0  501    0  0.00000000000E+00  0.00000000000E+00  0.28630557923E+02  0.28630557923E+02  0.00000000000E+00 0. -1.
         -4   -1    0    0    0  501 -0.00000000000E+00 -0.00000000000E+00 -0.49268440535E+03  0.49268440535E+03  0.00000000000E+00 0.  1.
         25    2    1    2    0    0  0.46100899170E+02 -0.12192267284E+02 -0.24020621406E+03  0.27495246526E+03  0.12500355432E+03 0.  0.
         23    2    1    2    0    0 -0.46100899170E+02  0.12192267284E+02 -0.22384763336E+03  0.24636249801E+03  0.91174410768E+02 0.  0.
          5    1    4    4  502    0 -0.39517129072E+02  0.41847756393E+02 -0.76539106312E+02  0.95880983517E+02  0.47000000000E+01 0. -1.
         -5    1    3    3    0  503 -0.30105215162E+02 -0.34602923965E+02 -0.46238572637E+02  0.65297641048E+02  0.47000000000E+01 0.  1.
          5    1    3    3  503    0  0.76206114332E+02  0.22410656681E+02 -0.19396764143E+03  0.20965482421E+03  0.47000000000E+01 0.  1.
         -5    1    4    4    0  502 -0.65837700985E+01 -0.29655489108E+02 -0.14730852705E+03  0.15048151449E+03  0.47000000000E+01 0.  1.
<mgrwt>
<rscale>  0 0.12528917E+03</rscale>
<asrwt>0</asrwt>
<pdfrwt beam="1">  1        4 0.44047015E-02 0.13379026E+03</pdfrwt>
<pdfrwt beam="2">  1       -4 0.75797596E-01 0.13379026E+03</pdfrwt>
<totfact> 0.77504386E+02</totfact>
</mgrwt>
</event>
<event>
 8    1  0.3551276E-004  0.1281976E+03  0.7546771E-02  0.1244164E+00
          1   -1    0    0  501    0  0.00000000000E+00  0.00000000000E+00  0.60400811304E+03  0.60400811304E+03  0.00000000000E+00 0. -1.
         -1   -1    0    0    0  501 -0.00000000000E+00 -0.00000000000E+00 -0.21719614543E+02  0.21719614543E+02  0.00000000000E+00 0.  1.
         25    2    1    2    0    0  0.15437509651E+02  0.23925771165E+02  0.39231958381E+03  0.41273390408E+03  0.12499544195E+03 0.  0.
         23    2    1    2    0    0 -0.15437509651E+02 -0.23925771165E+02  0.18996891469E+03  0.21299382350E+03  0.92018590903E+02 0.  0.
          5    1    3    3  502    0  0.43020729352E+02 -0.32466120748E+02  0.26775073206E+03  0.27316181408E+03  0.47000000000E+01 0.  1.
         -5    1    4    4    0  503 -0.71993213345E+01  0.25228051625E+02  0.14127974450E+02  0.30165783241E+02  0.47000000000E+01 0.  1.
          5    1    4    4  503    0 -0.82381883169E+01 -0.49153822790E+02  0.17584094024E+03  0.18282804026E+03  0.47000000000E+01 0. -1.
         -5    1    3    3    0  502 -0.27583219700E+02  0.56391891913E+02  0.12456885175E+03  0.13957209001E+03  0.47000000000E+01 0.  1.
<mgrwt>
<rscale>  0 0.11935558E+03</rscale>
<asrwt>0</asrwt>
<pdfrwt beam="1">  1        1 0.92924312E-01 0.12819758E+03</pdfrwt>
<pdfrwt beam="2">  1       -1 0.33414796E-02 0.12819758E+03</pdfrwt>
<totfact> 0.10647298E+04</totfact>
</mgrwt>
</event>
<event>
 8    1  0.3551276E-004  0.1521901E+03  0.7546771E-02  0.1206747E+00
          3   -1    0    0  501    0  0.00000000000E+00  0.00000000000E+00  0.15958163752E+03  0.15958163752E+03  0.00000000000E+00 0. -1.
         -3   -1    0    0    0  501 -0.00000000000E+00 -0.00000000000E+00 -0.15130583624E+03  0.15130583624E+03  0.00000000000E+00 0.  1.
         25    2    1    2    0    0  0.64320949070E+02 -0.58318061201E+02  0.74063538341E+02  0.16925492491E+03  0.12499456445E+03 0.  0.
         23    2    1    2    0    0 -0.64320949070E+02  0.58318061201E+02 -0.65787737060E+02  0.14163254885E+03  0.90518350592E+02 0.  0.
          5    1    3    3  502    0  0.46529836305E+02 -0.97919620996E+02  0.52040452242E+02  0.12034773164E+03  0.47000000000E+01 0.  1.
         -5    1    3    3    0  502  0.17791112765E+02  0.39601559795E+02  0.22023086100E+02  0.48907193264E+02  0.47000000000E+01 0.  1.
          5    1    4    4  503    0 -0.18150973803E+02  0.25139700570E+02  0.21021837809E+02  0.37755397754E+02  0.47000000000E+01 0. -1.
         -5    1    4    4    0  503 -0.46169975268E+02  0.33178360631E+02 -0.86809574868E+02  0.10387715109E+03  0.47000000000E+01 0.  1.
<mgrwt>
<rscale>  0 0.14500631E+03</rscale>
<asrwt>0</asrwt>
<pdfrwt beam="1">  1        3 0.24551021E-01 0.15219008E+03</pdfrwt>
<pdfrwt beam="2">  1       -3 0.23277821E-01 0.15219008E+03</pdfrwt>
<totfact> 0.62498556E+02</totfact>
</mgrwt>
</event>
<event>
 8    1  0.3551276E-004  0.2409884E+03  0.7546771E-02  0.1121917E+00
          2   -1    0    0  501    0  0.00000000000E+00  0.00000000000E+00  0.76364117162E+03  0.76364117162E+03  0.00000000000E+00 0. -1.
         -2   -1    0    0    0  501 -0.00000000000E+00 -0.00000000000E+00 -0.76562779253E+02  0.76562779253E+02  0.00000000000E+00 0.  1.
         25    2    1    2    0    0  0.20595511787E+03 -0.56970619529E+01  0.24175911400E+03  0.34135445709E+03  0.12500171632E+03 0.  0.
         23    2    1    2    0    0 -0.20595511787E+03  0.56970619529E+01  0.44531927837E+03  0.49884949379E+03  0.89953269362E+02 0.  0.
          5    1    4    4  502    0 -0.12890716794E+02 -0.24411082983E+02  0.39555164448E+02  0.48464137116E+02  0.47000000000E+01 0. -1.
         -5    1    4    4    0  502 -0.19306440107E+03  0.30108144936E+02  0.40576411392E+03  0.45038535667E+03  0.47000000000E+01 0.  1.
          5    1    3    3  503    0  0.22625129336E+02 -0.22587925396E+02 -0.57739171928E+01  0.32825888730E+02  0.47000000000E+01 0. -1.
         -5    1    3    3    0  503  0.18332998853E+03  0.16890863444E+02  0.24753303119E+03  0.30852856836E+03  0.47000000000E+01 0. -1.
<mgrwt>
<rscale>  0 0.23683896E+03</rscale>
<asrwt>0</asrwt>
<pdfrwt beam="1">  1        2 0.11748325E+00 0.24098837E+03</pdfrwt>
<pdfrwt beam="2">  1       -2 0.11778890E-01 0.24098837E+03</pdfrwt>
<totfact> 0.19136801E+03</totfact>
</mgrwt>
</event>
<event>
 8    1  0.3551276E-004  0.1762545E+03  0.7546771E-02  0.1177090E+00
         -1   -1    0    0    0  501 -0.00000000000E+00  0.00000000000E+00  0.21045874715E+03  0.21045874715E+03  0.00000000000E+00 0.  1.
          1   -1    0    0  501    0  0.00000000000E+00 -0.00000000000E+00 -0.13635907784E+03  0.13635907784E+03  0.00000000000E+00 0. -1.
         25    2    1    2    0    0  0.74978658638E+02 -0.99088295087E+02  0.33684943295E+01  0.17628664179E+03  0.12500137538E+03 0.  0.
         23    2    1    2    0    0 -0.74978658638E+02  0.99088295087E+02  0.70731174982E+02  0.17053118320E+03  0.92939205159E+02 0.  0.
          5    1    4    4  502    0 -0.57928825007E+02  0.50643989004E+02 -0.68288294701E+01  0.77390472934E+02  0.47000000000E+01 0. -1.
         -5    1    4    4    0  502 -0.17049833631E+02  0.48444306083E+02  0.77560004452E+02  0.93140710268E+02  0.47000000000E+01 0.  1.
          5    1    3    3  503    0  0.95667749760E+02 -0.61368573125E+02  0.38971372251E+02  0.12024673786E+03  0.47000000000E+01 0. -1.
         -5    1    3    3    0  503 -0.20689091122E+02 -0.37719721962E+02 -0.35602877922E+02  0.56039903931E+02  0.47000000000E+01 0. -1.
<mgrwt>
<rscale>  0 0.17072912E+03</rscale>
<asrwt>0</asrwt>
<pdfrwt beam="1">  1        1 0.20978320E-01 0.17625446E+03</pdfrwt>
<pdfrwt beam="2">  1       -1 0.32378269E-01 0.17625446E+03</pdfrwt>
<totfact> 0.21136528E+03</totfact>
</mgrwt>
</event>
<event>
 8    1  0.3551276E-004  0.1368179E+03  0.7546771E-02  0.1228657E+00
          1   -1    0    0  501    0  0.00000000000E+00  0.00000000000E+00  0.56846962738E+03  0.56846962738E+03  0.00000000000E+00 0. -1.
         -1   -1    0    0    0  501 -0.00000000000E+00 -0.00000000000E+00 -0.26768742973E+02  0.26768742973E+02  0.00000000000E+00 0.  1.
         25    2    1    2    0    0 -0.43914174448E+02 -0.34114929665E+02  0.27332351883E+03  0.30565485937E+03  0.12500745563E+03 0.  0.
         23    2    1    2    0    0  0.43914174448E+02  0.34114929665E+02  0.26837736557E+03  0.28958351099E+03  0.93487519702E+02 0.  0.
          5    1    3    3  502    0 -0.16585348400E+02 -0.65649288829E+02  0.24685561152E+03  0.25601696398E+03  0.47000000000E+01 0.  1.
         -5    1    3    3    0  502 -0.27328826048E+02  0.31534359163E+02  0.26467907315E+02  0.49637895389E+02  0.47000000000E+01 0.  1.
          5    1    4    4  503    0  0.51398548526E+02  0.61243819566E+01  0.24910484643E+03  0.25446931712E+03  0.47000000000E+01 0. -1.
         -5    1    4    4    0  503 -0.74843740776E+01  0.27990547709E+02  0.19272519149E+02  0.35114193864E+02  0.47000000000E+01 0.  1.
<mgrwt>
<rscale>  0 0.12919344E+03</rscale>
<asrwt>0</asrwt>
<pdfrwt beam="1">  1        1 0.87456857E-01 0.13681793E+03</pdfrwt>
<pdfrwt beam="2">  1       -1 0.41182686E-02 0.13681793E+03</pdfrwt>
<totfact> 0.85474832E+03</totfact>
</mgrwt>
</event>
<event>
 8    1  0.3551276E-004  0.1370730E+03  0.7546771E-02  0.1229570E+00
         -2   -1    0    0    0  501 -0.00000000000E+00  0.00000000000E+00  0.18874306254E+03  0.18874306254E+03  0.00000000000E+00 0.  1.
          2   -1    0    0  501    0  0.00000000000E+00 -0.00000000000E+00 -0.83869802006E+02  0.83869802006E+02  0.00000000000E+00 0. -1.
         25    2    1    2    0    0 -0.53614386046E+02 -0.16980332798E+02  0.23980498132E+02  0.13915480151E+03  0.12500464152E+03 0.  0.
         23    2    1    2    0    0  0.53614386046E+02  0.16980332798E+02  0.80892762399E+02  0.13345806303E+03  0.90025449103E+02 0.  0.
          5    1    4    4  502    0 -0.82516315374E+01 -0.23957764957E+02  0.42732048541E+02  0.49901722388E+02  0.47000000000E+01 0. -1.
         -5    1    3    3    0  503  0.27427669546E+02 -0.28701618773E+02  0.38910572232E+02  0.55786939407E+02  0.47000000000E+01 0.  1.
          5    1    3    3  503    0 -0.81042055592E+02  0.11721285975E+02 -0.14930074100E+02  0.83367862106E+02  0.47000000000E+01 0.  1.
         -5    1    4    4    0  502  0.61866017583E+02  0.40938097755E+02  0.38160713858E+02  0.83556340642E+02  0.47000000000E+01 0.  1.
<mgrwt>
<rscale>  0 0.12858546E+03</rscale>
<asrwt>0</asrwt>
<pdfrwt beam="1">  1        2 0.12903046E-01 0.13707295E+03</pdfrwt>
<pdfrwt beam="2">  1       -2 0.29037394E-01 0.13707295E+03</pdfrwt>
<totfact> 0.48374651E+03</totfact>
</mgrwt>
</event>
<event>
 8    1  0.3551276E-004  0.2736956E+03  0.7546771E-02  0.1101082E+00
          2   -1    0    0  501    0  0.00000000000E+00  0.00000000000E+00  0.19755422016E+03  0.19755422016E+03  0.00000000000E+00 0. -1.
         -2   -1    0    0    0  501 -0.00000000000E+00 -0.00000000000E+00 -0.36574892146E+03  0.36574892146E+03  0.00000000000E+00 0.  1.
         25    2    1    2    0    0 -0.84329791556E+02 -0.22841363252E+03 -0.11761598397E+03  0.29789734042E+03  0.12500001790E+03 0.  0.
         23    2    1    2    0    0  0.84329791556E+02  0.22841363252E+03 -0.50578717329E+02  0.26540580120E+03  0.92723952671E+02 0.  0.
          5    1    4    4  502    0  0.61675761303E+02  0.19282917973E+03 -0.42194194743E+01  0.20255094567E+03  0.47000000000E+01 0. -1.
         -5    1    4    4    0  502  0.22654030252E+02  0.35584452790E+02 -0.46359297855E+02  0.62854855537E+02  0.47000000000E+01 0.  1.
          5    1    3    3  503    0 -0.21045256193E+02  0.32866191629E+01 -0.39782322791E+02  0.45369900599E+02  0.47000000000E+01 0. -1.
         -5    1    3    3    0  503 -0.63284535363E+02 -0.23170025169E+03 -0.77833661183E+02  0.25252743982E+03  0.47000000000E+01 0. -1.
<mgrwt>
<rscale>  0 0.27034620E+03</rscale>
<asrwt>0</asrwt>
<pdfrwt beam="1">  1        2 0.30392957E-01 0.27369564E+03</pdfrwt>
<pdfrwt beam="2">  1       -2 0.56269065E-01 0.27369564E+03</pdfrwt>
<totfact> 0.52383803E+02</totfact>
</mgrwt>
</event>
<event>
 8    1  0.3551276E-004  0.1628674E+03  0.7546771E-02  0.1192931E+00
         -2   -1    0    0    0  501 -0.00000000000E+00  0.00000000000E+00  0.15553939383E+02  0.15553939383E+02  0.00000000000E+00 0.  1.
          2   -1    0    0  501    0  0.00000000000E+00 -0.00000000000E+00 -0.14814620339E+04  0.14814620339E+04  0.00000000000E+00 0. -1.
         25    2    1    2    0    0 -0.99538899543E+02  0.31449382297E+02 -0.88877495569E+03  0.90357441244E+03  0.12501496224E+03 0.  0.
         23    2    1    2    0    0  0.99538899543E+02 -0.31449382297E+02 -0.57713313881E+03  0.59344156083E+03  0.90516131356E+02 0.  0.
          5    1    3    3  502    0  0.18199965173E+02 -0.22417663485E+02 -0.98619278413E+02  0.10286711060E+03  0.47000000000E+01 0. -1.
         -5    1    4    4    0  503  0.14194378305E+02 -0.24767623440E+02 -0.39204948274E+02  0.48724054793E+02  0.47000000000E+01 0.  1.
          5    1    4    4  503    0  0.85344521239E+02 -0.66817588571E+01 -0.53792819054E+03  0.54471750604E+03  0.47000000000E+01 0. -1.
         -5    1    3    3    0  502 -0.11773886472E+03  0.53867045782E+02 -0.79015567727E+03  0.80070730184E+03  0.47000000000E+01 0. -1.
<mgrwt>
<rscale>  0 0.15630650E+03</rscale>
<asrwt>0</asrwt>
<pdfrwt beam="1">  1        2 0.22791725E+00 0.16286742E+03</pdfrwt>
<pdfrwt beam="2">  1       -2 0.23929136E-02 0.16286742E+03</pdfrwt>
<totfact> 0.81493511E+03</totfact>
</mgrwt>
</event>
<event>
 8    1  0.3551276E-004  0.1802002E+03  0.7546771E-02  0.1173269E+00
          1   -1    0    0  501    0  0.00000000000E+00  0.00000000000E+00  0.12761739428E+04  0.12761739428E+04  0.00000000000E+00 0. -1.
         -1   -1    0    0    0  501 -0.00000000000E+00 -0.00000000000E+00 -0.27149362919E+02  0.27149362919E+02  0.00000000000E+00 0.  1.
         25    2    1    2    0    0 -0.12411583848E+03 -0.37981941654E+02  0.38725086484E+03  0.42712451640E+03  0.12499900374E+03 0.  0.
         23    2    1    2    0    0  0.12411583848E+03  0.37981941654E+02  0.86177371507E+03  0.87619878935E+03  0.90680831578E+02 0.  0.
          5    1    4    4  502    0  0.30575760494E+02  0.49602621789E+02  0.44803605780E+03  0.45183370426E+03  0.47000000000E+01 0. -1.
         -5    1    3    3    0  503 -0.97849339722E+02 -0.66612414125E+02  0.17519821114E+03  0.21149044940E+03  0.47000000000E+01 0.  1.
          5    1    3    3  503    0 -0.26266498763E+02  0.28630472471E+02  0.21205265370E+03  0.21563406700E+03  0.47000000000E+01 0.  1.
         -5    1    4    4    0  502  0.93540077991E+02 -0.11620680135E+02  0.41373765727E+03  0.42436508509E+03  0.47000000000E+01 0.  1.
<mgrwt>
<rscale>  0 0.17446632E+03</rscale>
<asrwt>0</asrwt>
<pdfrwt beam="1">  1        1 0.19633441E+00 0.18020022E+03</pdfrwt>
<pdfrwt beam="2">  1       -1 0.41768260E-02 0.18020022E+03</pdfrwt>
<totfact> 0.23292243E+03</totfact>
</mgrwt>
</event>
<event>
 8    1  0.3551276E-004  0.1370625E+03  0.7546771E-02  0.1230848E+00
          2   -1    0    0  501    0  0.00000000000E+00  0.00000000000E+00  0.37479533398E+02  0.37479533398E+02  0.00000000000E+00 0. -1.
         -2   -1    0    0    0  501 -0.00000000000E+00 -0.00000000000E+00 -0.38576916262E+03  0.38576916262E+03  0.00000000000E+00 0.  1.
         25    2    1    2    0    0 -0.71676014654E+01 -0.55771570410E+02 -0.19601746519E+03  0.23918399223E+03  0.12499717158E+03 0.  0.
         23    2    1    2    0    0  0.71676014654E+01  0.55771570410E+02 -0.15227216404E+03  0.18406470379E+03  0.86782260083E+02 0.  0.
          5    1    3    3  502    0  0.57179048325E+02 -0.11826025515E+02 -0.74839698181E+02  0.95038775616E+02  0.47000000000E+01 0.  1.
         -5    1    3    3    0  502 -0.64346649790E+02 -0.43945544895E+02 -0.12117776701E+03  0.14414521661E+03  0.47000000000E+01 0.  1.
          5    1    4    4  503    0  0.34226181797E+02  0.48647819144E+02 -0.14176372214E+03  0.15380859775E+03  0.47000000000E+01 0. -1.
         -5    1    4    4    0  503 -0.27058580332E+02  0.71237512660E+01 -0.10508441900E+02  0.30256106042E+02  0.47000000000E+01 0.  1.
<mgrwt>
<rscale>  0 0.12773988E+03</rscale>
<asrwt>0</asrwt>
<pdfrwt beam="1">  1        2 0.57660824E-02 0.13706252E+03</pdfrwt>
<pdfrwt beam="2">  1       -2 0.59349099E-01 0.13706252E+03</pdfrwt>
<totfact> 0.33645615E+03</totfact>
</mgrwt>
</event>
<event>
 8    1  0.3551276E-004  0.2462991E+03  0.7546771E-02  0.1118199E+00
         -2   -1    0    0    0  501 -0.00000000000E+00  0.00000000000E+00  0.41138677541E+03  0.41138677541E+03  0.00000000000E+00 0.  1.
          2   -1    0    0  501    0  0.00000000000E+00 -0.00000000000E+00 -0.18141108822E+03  0.18141108822E+03  0.00000000000E+00 0. -1.
         25    2    1    2    0    0  0.20408133858E+03 -0.58216640066E+02 -0.26316869535E+02  0.24770110254E+03  0.12499955456E+03 0.  0.
         23    2    1    2    0    0 -0.20408133858E+03  0.58216640066E+02  0.25629255672E+03  0.34509676108E+03  0.91474203701E+02 0.  0.
          5    1    3    3  502    0  0.13053651388E+02 -0.32658322156E+02 -0.41160024838E+02  0.54343366341E+02  0.47000000000E+01 0.  1.
         -5    1    3    3    0  502  0.19102768720E+03 -0.25558317910E+02  0.14843155303E+02  0.19335773620E+03  0.47000000000E+01 0.  1.
          5    1    4    4  503    0 -0.84822677050E+02  0.68325758769E+02  0.97990975683E+02  0.14658655180E+03  0.47000000000E+01 0. -1.
         -5    1    4    4    0  503 -0.11925866153E+03 -0.10109118703E+02  0.15830158104E+03  0.19851020928E+03  0.47000000000E+01 0.  1.
<mgrwt>
<rscale>  0 0.24240736E+03</rscale>
<asrwt>0</asrwt>
<pdfrwt beam="1">  1        2 0.27909398E-01 0.24629912E+03</pdfrwt>
<pdfrwt beam="2">  1       -2 0.63290273E-01 0.24629912E+03</pdfrwt>
<totfact> 0.45080677E+02</totfact>
</mgrwt>
</event>
<event>
 8    1  0.3551276E-004  0.1697343E+03  0.7546771E-02  0.1185416E+00
          1   -1    0    0  501    0  0.00000000000E+00  0.00000000000E+00  0.14213153764E+03  0.14213153764E+03  0.00000000000E+00 0. -1.
         -1   -1    0    0    0  501 -0.00000000000E+00 -0.00000000000E+00 -0.21027323913E+03  0.21027323913E+03  0.00000000000E+00 0.  1.
         25    2    1    2    0    0 -0.11367168713E+03 -0.16237999172E+02 -0.11004806434E+03  0.20228771987E+03  0.12499928030E+03 0.  0.
         23    2    1    2    0    0  0.11367168713E+03  0.16237999172E+02  0.41906362843E+02  0.15011705690E+03  0.87143918056E+02 0.  0.
          5    1    4    4  502    0  0.11122639017E+03 -0.13273748280E+02  0.43091157959E+02  0.12011011680E+03  0.47000000000E+01 0. -1.
         -5    1    3    3    0  503 -0.77548954927E+02 -0.16412128179E+02  0.69888368400E+01  0.79712810778E+02  0.47000000000E+01 0.  1.
          5    1    3    3  503    0 -0.36122732201E+02  0.17412900661E+00 -0.11703690118E+03  0.12257490910E+03  0.47000000000E+01 0.  1.
         -5    1    4    4    0  502  0.24452969615E+01  0.29511747452E+02 -0.11847951153E+01  0.30006940103E+02  0.47000000000E+01 0.  1.
<mgrwt>
<rscale>  0 0.16294098E+03</rscale>
<asrwt>0</asrwt>
<pdfrwt beam="1">  1        1 0.21866390E-01 0.16973434E+03</pdfrwt>
<pdfrwt beam="2">  1       -1 0.32349729E-01 0.16973434E+03</pdfrwt>
<totfact> 0.20052354E+03</totfact>
</mgrwt>
</event>
<event>
 8    1  0.3551276E-004  0.1262929E+03  0.7546771E-02  0.1248722E+00
         -1   -1    0    0    0  501 -0.00000000000E+00  0.00000000000E+00  0.50183907299E+03  0.50183907299E+03  0.00000000000E+00 0.  1.
          1   -1    0    0  501    0  0.00000000000E+00 -0.00000000000E+00 -0.23738256843E+02  0.23738256843E+02  0.00000000000E+00 0. -1.
         25    2    1    2    0    0 -0.13951661442E+01 -0.17985680028E+02  0.28316058985E+03  0.31004807413E+03  0.12499782980E+03 0.  0.
         23    2    1    2    0    0  0.13951661442E+01  0.17985680028E+02  0.19494022630E+03  0.21552925570E+03  0.90142870262E+02 0.  0.
          5    1    3    3  502    0  0.12236072015E+02  0.32560787140E+02  0.17468772741E+02  0.39206814951E+02  0.47000000000E+01 0.  1.
         -5    1    3    3    0  502 -0.13631238159E+02 -0.50546467168E+02  0.26569181711E+03  0.27084125918E+03  0.47000000000E+01 0.  1.
          5    1    4    4  503    0  0.25396688802E+02  0.56292702978E+01  0.95215727978E+01  0.28096811825E+02  0.47000000000E+01 0. -1.
         -5    1    4    4    0  503 -0.24001522658E+02  0.12356409730E+02  0.18541865350E+03  0.18743244388E+03  0.47000000000E+01 0.  1.
<mgrwt>
<rscale>  0 0.11665375E+03</rscale>
<asrwt>0</asrwt>
<pdfrwt beam="1">  1        1 0.36520399E-02 0.12629287E+03</pdfrwt>
<pdfrwt beam="2">  1       -1 0.77206003E-01 0.12629287E+03</pdfrwt>
<totfact> 0.43210383E+03</totfact>
</mgrwt>
</event>
<event>
 8    1  0.3551276E-004  0.1271656E+03  0.7546771E-02  0.1245967E+00
          1   -1    0    0  501    0  0.00000000000E+00  0.00000000000E+00  0.29669723792E+03  0.29669723792E+03  0.00000000000E+00 0. -1.
         -1   -1    0    0    0  501 -0.00000000000E+00 -0.00000000000E+00 -0.42473270008E+02  0.42473270008E+02  0.00000000000E+00 0.  1.
         25    2    1    2    0    0  0.22363751088E+02 -0.67692265781E+01  0.12170984655E+03  0.17602381758E+03  0.12500055127E+03 0.  0.
         23    2    1    2    0    0 -0.22363751088E+02  0.67692265781E+01  0.13251412137E+03  0.16314669035E+03  0.92254487259E+02 0.  0.
          5    1    3    3  502    0 -0.39209450057E+02  0.34871920719E+02  0.49940137678E+02  0.72591591660E+02  0.47000000000E+01 0.  1.
         -5    1    4    4    0  503 -0.44381887520E+02  0.13916671283E+02  0.13143394194E+03  0.13950052607E+03  0.47000000000E+01 0.  1.
          5    1    4    4  503    0  0.22018136432E+02 -0.71474447054E+01  0.10801794292E+01  0.23646164284E+02  0.47000000000E+01 0. -1.
         -5    1    3    3    0  502  0.61573201146E+02 -0.41641147297E+02  0.71769708871E+02  0.10343222592E+03  0.47000000000E+01 0.  1.
<mgrwt>
<rscale>  0 0.11827677E+03</rscale>
<asrwt>0</asrwt>
<pdfrwt beam="1">  1        1 0.45645728E-01 0.12716563E+03</pdfrwt>
<pdfrwt beam="2">  1       -1 0.65343494E-02 0.12716563E+03</pdfrwt>
<totfact> 0.98167163E+03</totfact>
</mgrwt>
</event>
<event>
 8    1  0.3551276E-004  0.1271426E+03  0.7546771E-02  0.1243756E+00
          2   -1    0    0  501    0  0.00000000000E+00  0.00000000000E+00  0.48677479133E+03  0.48677479133E+03  0.00000000000E+00 0.  1.
         -2   -1    0    0    0  501 -0.00000000000E+00 -0.00000000000E+00 -0.31842870619E+02  0.31842870619E+02  0.00000000000E+00 0. -1.
         25    2    1    2    0    0  0.22879808730E+02  0.40817788348E+01  0.14380882374E+03  0.19195370416E+03  0.12500040075E+03 0.  0.
         23    2    1    2    0    0 -0.22879808730E+02 -0.40817788348E+01  0.31112309697E+03  0.32666395780E+03  0.96807093159E+02 0.  0.
          5    1    4    4  502    0 -0.60677757933E+02 -0.69247009761E+01  0.18406034298E+03  0.19398464281E+03  0.47000000000E+01 0.  1.
         -5    1    4    4    0  502  0.37797949203E+02  0.28429221414E+01  0.12706275400E+03  0.13267931498E+03  0.47000000000E+01 0. -1.
          5    1    3    3  503    0  0.56609520952E+02 -0.41350866010E+02  0.75699733424E+02  0.10328151636E+03  0.47000000000E+01 0. -1.
         -5    1    3    3    0  503 -0.33729712222E+02  0.45432644845E+02  0.68109090315E+02  0.88672187792E+02  0.47000000000E+01 0. -1.
<mgrwt>
<rscale>  0 0.11960166E+03</rscale>
<asrwt>0</asrwt>
<pdfrwt beam="1">  1        2 0.74888424E-01 0.12714262E+03</pdfrwt>
<pdfrwt beam="2">  1       -2 0.48989035E-02 0.12714262E+03</pdfrwt>
<totfact> 0.12232801E+04</totfact>
</mgrwt>
</event>
<event>
 8    1  0.3551276E-004  0.1259679E+03  0.7546771E-02  0.1242956E+00
          2   -1    0    0  501    0  0.00000000000E+00  0.00000000000E+00  0.54234117556E+03  0.54234117556E+03  0.00000000000E+00 0. -1.
         -2   -1    0    0    0  501 -0.00000000000E+00 -0.00000000000E+00 -0.24435557444E+02  0.24435557444E+02  0.00000000000E+00 0.  1.
         25    2    1    2    0    0 -0.10345103446E+02 -0.11648786802E+02  0.29633617879E+03  0.32199852626E+03  0.12500081861E+03 0.  0.
         23    2    1    2    0    0  0.10345103446E+02  0.11648786802E+02  0.22156943933E+03  0.24477820675E+03  0.10286223143E+03 0.  0.
          5    1    4    4  502    0  0.42997172325E+02 -0.24735157026E+02  0.14934357329E+03  0.15743626553E+03  0.47000000000E+01 0. -1.
         -5    1    3    3    0  503 -0.67320600267E+02 -0.13261577378E+02  0.16243300588E+03  0.17639303856E+03  0.47000000000E+01 0.  1.
          5    1    3    3  503    0  0.56975496821E+02  0.16127905757E+01  0.13390317291E+03  0.14560548770E+03  0.47000000000E+01 0.  1.
         -5    1    4    4    0  502 -0.32652068879E+02  0.36383943828E+02  0.72225866036E+02  0.87341941215E+02  0.47000000000E+01 0.  1.
<mgrwt>
<rscale>  0 0.12008541E+03</rscale>
<asrwt>0</asrwt>
<pdfrwt beam="1">  1        2 0.83437095E-01 0.12596793E+03</pdfrwt>
<pdfrwt beam="2">  1       -2 0.37593169E-02 0.12596793E+03</pdfrwt>
<totfact> 0.16094218E+04</totfact>
</mgrwt>
</event>
<event>
 8    1  0.3551276E-004  0.1416249E+03  0.7546771E-02  0.1221638E+00
          4   -1    0    0  501    0  0.00000000000E+00  0.00000000000E+00  0.11580437596E+04  0.11580437596E+04  0.00000000000E+00 0. -1.
         -4   -1    0    0    0  501 -0.00000000000E+00 -0.00000000000E+00 -0.14244012260E+02  0.14244012260E+02  0.00000000000E+00 0.  1.
         25    2    1    2    0    0  0.36272370568E+02 -0.55830465247E+02  0.70180796244E+03  0.71595532381E+03  0.12499953534E+03 0.  0.
         23    2    1    2    0    0 -0.36272370568E+02  0.55830465247E+02  0.44199178489E+03  0.45633244804E+03  0.91923008570E+02 0.  0.
          5    1    4    4  502    0  0.26411733259E+01 -0.23939482359E+02  0.88638616230E+02  0.91972652997E+02  0.47000000000E+01 0. -1.
         -5    1    4    4    0  502 -0.38913543894E+02  0.79769947605E+02  0.35335316866E+03  0.36435979504E+03  0.47000000000E+01 0.  1.
          5    1    3    3  503    0  0.52144531362E+02  0.17983747254E+02  0.16980429925E+03  0.17860027256E+03  0.47000000000E+01 0.  1.
         -5    1    3    3    0  503 -0.15872160794E+02 -0.73814212500E+02  0.53200366319E+03  0.53735505125E+03  0.47000000000E+01 0.  1.
<mgrwt>
<rscale>  0 0.13400006E+03</rscale>
<asrwt>0</asrwt>
<pdfrwt beam="1">  1        4 0.17816050E+00 0.14162489E+03</pdfrwt>
<pdfrwt beam="2">  1       -4 0.21913874E-02 0.14162489E+03</pdfrwt>
<totfact> 0.29988027E+02</totfact>
</mgrwt>
</event>
<event>
 8    1  0.3551276E-004  0.1508715E+03  0.7546771E-02  0.1205253E+00
         -2   -1    0    0    0  501 -0.00000000000E+00  0.00000000000E+00  0.28030152141E+02  0.28030152141E+02  0.00000000000E+00 0.  1.
          2   -1    0    0  501    0  0.00000000000E+00 -0.00000000000E+00 -0.72414623575E+03  0.72414623575E+03  0.00000000000E+00 0. -1.
         25    2    1    2    0    0 -0.84465357923E+02 -0.17878429986E+01 -0.40319032753E+03  0.43049349192E+03  0.12499845322E+03 0.  0.
         23    2    1    2    0    0  0.84465357923E+02  0.17878429986E+01 -0.29292575608E+03  0.32168289596E+03  0.10264888654E+03 0.  0.
          5    1    3    3  502    0 -0.36614248739E+02 -0.20206738094E+02 -0.36231973716E+03  0.36475553102E+03  0.47000000000E+01 0. -1.
         -5    1    4    4    0  503  0.48498237776E+02  0.45549652230E+02 -0.21581206999E+03  0.22588446037E+03  0.47000000000E+01 0.  1.
          5    1    4    4  503    0  0.35967120148E+02 -0.43761809231E+02 -0.77113686094E+02  0.95798435592E+02  0.47000000000E+01 0. -1.
         -5    1    3    3    0  502 -0.47851109185E+02  0.18418895095E+02 -0.40870590363E+02  0.65737960901E+02  0.47000000000E+01 0. -1.
<mgrwt>
<rscale>  0 0.14617511E+03</rscale>
<asrwt>0</asrwt>
<pdfrwt beam="1">  1        2 0.11140712E+00 0.15087149E+03</pdfrwt>
<pdfrwt beam="2">  1       -2 0.43123310E-02 0.15087149E+03</pdfrwt>
<totfact> 0.95227017E+03</totfact>
</mgrwt>
</event>
<event>
 8    1  0.3551276E-004  0.1757191E+03  0.7546771E-02  0.1177729E+00
          2   -1    0    0  501    0  0.00000000000E+00  0.00000000000E+00  0.54300475506E+02  0.54300475506E+02  0.00000000000E+00 0. -1.
         -2   -1    0    0    0  501 -0.00000000000E+00 -0.00000000000E+00 -0.50247549500E+03  0.50247549500E+03  0.00000000000E+00 0.  1.
         25    2    1    2    0    0  0.60406256339E+02 -0.10772392061E+03 -0.22689264616E+03  0.28697992246E+03  0.12499537646E+03 0.  0.
         23    2    1    2    0    0 -0.60406256339E+02  0.10772392061E+03 -0.22128237333E+03  0.26979604805E+03  0.92577858682E+02 0.  0.
          5    1    4    4  502    0 -0.66291271240E+02  0.59991862961E+02 -0.19550056434E+03  0.21502585175E+03  0.47000000000E+01 0. -1.
         -5    1    4    4    0  502  0.58850149008E+01  0.47732057645E+02 -0.25781808995E+02  0.54770196298E+02  0.47000000000E+01 0.  1.
          5    1    3    3  503    0  0.82739837644E+01 -0.11482641210E+03 -0.11275821596E+03  0.16121435727E+03  0.47000000000E+01 0.  1.
         -5    1    3    3    0  503  0.52132272575E+02  0.71024914975E+01 -0.11413443020E+03  0.12576556519E+03  0.47000000000E+01 0.  1.
<mgrwt>
<rscale>  0 0.17011441E+03</rscale>
<asrwt>0</asrwt>
<pdfrwt beam="1">  1        2 0.83539188E-02 0.17571910E+03</pdfrwt>
<pdfrwt beam="2">  1       -2 0.77303927E-01 0.17571910E+03</pdfrwt>
<totfact> 0.12149878E+03</totfact>
</mgrwt>
</event>
<event>
 8    1  0.3551276E-004  0.1363623E+03  0.7546771E-02  0.1230213E+00
         -3   -1    0    0    0  501 -0.00000000000E+00  0.00000000000E+00  0.96432943176E+02  0.96432943176E+02  0.00000000000E+00 0.  1.
          3   -1    0    0  501    0  0.00000000000E+00 -0.00000000000E+00 -0.21144559487E+03  0.21144559487E+03  0.00000000000E+00 0. -1.
         25    2    1    2    0    0 -0.18953791875E+02  0.51099323410E+02 -0.14327559648E+03  0.19779429994E+03  0.12499720582E+03 0.  0.
         23    2    1    2    0    0  0.18953791875E+02 -0.51099323410E+02  0.28262944791E+02  0.11008423810E+03  0.91374823400E+02 0.  0.
          5    1    3    3  502    0 -0.42227472699E+01  0.28626482908E+02 -0.16204938520E+03  0.16467969019E+03  0.47000000000E+01 0. -1.
         -5    1    4    4    0  503 -0.22311314435E+02  0.13364256036E+02  0.19618073254E+02  0.32914387271E+02  0.47000000000E+01 0.  1.
          5    1    4    4  503    0  0.41265106311E+02 -0.64463579446E+02  0.86448715371E+01  0.77169850834E+02  0.47000000000E+01 0. -1.
         -5    1    3    3    0  502 -0.14731044605E+02  0.22472840503E+02  0.18773788722E+02  0.33114609743E+02  0.47000000000E+01 0. -1.
<mgrwt>
<rscale>  0 0.12815939E+03</rscale>
<asrwt>0</asrwt>
<pdfrwt beam="1">  1        3 0.32530092E-01 0.13636234E+03</pdfrwt>
<pdfrwt beam="2">  1       -3 0.14835837E-01 0.13636234E+03</pdfrwt>
<totfact> 0.80678270E+02</totfact>
</mgrwt>
</event>
<event>
 8    1  0.3551276E-004  0.1370306E+03  0.7546771E-02  0.1233482E+00
          1   -1    0    0  501    0  0.00000000000E+00  0.00000000000E+00  0.33999368041E+03  0.33999368041E+03  0.00000000000E+00 0. -1.
         -1   -1    0    0    0  501 -0.00000000000E+00 -0.00000000000E+00 -0.41479407392E+02  0.41479407392E+02  0.00000000000E+00 0.  1.
         25    2    1    2    0    0 -0.25477323182E+02 -0.50043038582E+02  0.14652457331E+03  0.20061615964E+03  0.12499597280E+03 0.  0.
         23    2    1    2    0    0  0.25477323182E+02  0.50043038582E+02  0.15198969970E+03  0.18085692816E+03  0.80342765330E+02 0.  0.
          5    1    4    4  502    0 -0.15372776119E+02  0.37436193828E+02  0.12146831065E+03  0.12811881730E+03  0.47000000000E+01 0. -1.
         -5    1    4    4    0  502  0.40850099301E+02  0.12606844754E+02  0.30521389054E+02  0.52738110862E+02  0.47000000000E+01 0.  1.
          5    1    3    3  503    0 -0.55973890400E+02 -0.72555079200E+02  0.71130949810E+02  0.11609917289E+03  0.47000000000E+01 0.  1.
         -5    1    3    3    0  503  0.30496567218E+02  0.22512040619E+02  0.75393623501E+02  0.84516986751E+02  0.47000000000E+01 0.  1.
<mgrwt>
<rscale>  0 0.12602143E+03</rscale>
<asrwt>0</asrwt>
<pdfrwt beam="1">  1        1 0.52306718E-01 0.13703063E+03</pdfrwt>
<pdfrwt beam="2">  1       -1 0.63814475E-02 0.13703063E+03</pdfrwt>
<totfact> 0.86372321E+03</totfact>
</mgrwt>
</event>
<event>
 8    1  0.3551276E-004  0.1324578E+03  0.7546771E-02  0.1237246E+00
          2   -1    0    0  501    0  0.00000000000E+00  0.00000000000E+00  0.47447707945E+03  0.47447707945E+03  0.00000000000E+00 0. -1.
         -2   -1    0    0    0  501 -0.00000000000E+00 -0.00000000000E+00 -0.45017847270E+02  0.45017847270E+02  0.00000000000E+00 0.  1.
         25    2    1    2    0    0  0.18020380596E+02  0.39946260155E+02  0.38941889252E+03  0.41132971341E+03  0.12499848587E+03 0.  0.
         23    2    1    2    0    0 -0.18020380596E+02 -0.39946260155E+02  0.40040339658E+02  0.10816521330E+03  0.90421494966E+02 0.  0.
          5    1    4    4  502    0  0.17105943635E+02  0.21377455828E+02  0.20997570312E+02  0.34822361843E+02  0.47000000000E+01 0. -1.
         -5    1    4    4    0  502 -0.35126324231E+02 -0.61323715983E+02  0.19042769346E+02  0.73342851460E+02  0.47000000000E+01 0.  1.
          5    1    3    3  503    0  0.60586750064E+02  0.36020931363E+02  0.33288575858E+03  0.34029880994E+03  0.47000000000E+01 0.  1.
         -5    1    3    3    0  503 -0.42566369468E+02  0.39253287919E+01  0.56533133937E+02  0.71030903475E+02  0.47000000000E+01 0.  1.
<mgrwt>
<rscale>  0 0.12361732E+03</rscale>
<asrwt>0</asrwt>
<pdfrwt beam="1">  1        2 0.72996470E-01 0.13245776E+03</pdfrwt>
<pdfrwt beam="2">  1       -2 0.69258230E-02 0.13245776E+03</pdfrwt>
<totfact> 0.74728063E+03</totfact>
</mgrwt>
</event>
<event>
 8    1  0.3551276E-004  0.1461158E+03  0.7546771E-02  0.1215838E+00
          2   -1    0    0  501    0  0.00000000000E+00  0.00000000000E+00  0.36543253038E+03  0.36543253038E+03  0.00000000000E+00 0. -1.
         -2   -1    0    0    0  501 -0.00000000000E+00 -0.00000000000E+00 -0.54937869690E+02  0.54937869690E+02  0.00000000000E+00 0.  1.
         25    2    1    2    0    0  0.70817327756E+01  0.75309604172E+02  0.92106403383E+02  0.17272355545E+03  0.12501259793E+03 0.  0.
         23    2    1    2    0    0 -0.70817327756E+01 -0.75309604172E+02  0.21838825731E+03  0.24764684463E+03  0.88959773510E+02 0.  0.
          5    1    3    3  502    0  0.43244591280E+02  0.40639824158E+02 -0.85987948841E+01  0.60147479216E+02  0.47000000000E+01 0. -1.
         -5    1    4    4    0  503 -0.36370233317E+02 -0.67624024823E+02  0.10483549810E+03  0.13003220473E+03  0.47000000000E+01 0.  1.
          5    1    4    4  503    0  0.29288500541E+02 -0.76855793490E+01  0.11355275921E+03  0.11761463990E+03  0.47000000000E+01 0. -1.
         -5    1    3    3    0  502 -0.36162858505E+02  0.34669780015E+02  0.10070519827E+03  0.11257607623E+03  0.47000000000E+01 0. -1.
<mgrwt>
<rscale>  0 0.13815193E+03</rscale>
<asrwt>0</asrwt>
<pdfrwt beam="1">  1        2 0.56220388E-01 0.14611583E+03</pdfrwt>
<pdfrwt beam="2">  1       -2 0.84519802E-02 0.14611583E+03</pdfrwt>
<totfact> 0.73245782E+03</totfact>
</mgrwt>
</event>
<event>
 8    1  0.3551276E-004  0.1445664E+03  0.7546771E-02  0.1217188E+00
          2   -1    0    0  501    0  0.00000000000E+00  0.00000000000E+00  0.39626554998E+03  0.39626554998E+03  0.00000000000E+00 0. -1.
         -2   -1    0    0    0  501 -0.00000000000E+00 -0.00000000000E+00 -0.54865906585E+02  0.54865906585E+02  0.00000000000E+00 0.  1.
         25    2    1    2    0    0 -0.67961315904E+02 -0.25627134831E+02  0.28823592572E+03  0.32245837343E+03  0.12499585281E+03 0.  0.
         23    2    1    2    0    0  0.67961315904E+02  0.25627134831E+02  0.53163717678E+02  0.12867308314E+03  0.91950480954E+02 0.  0.
          5    1    4    4  502    0  0.77242045260E+02 -0.26449769796E+00  0.62262954294E+02  0.99323557087E+02  0.47000000000E+01 0. -1.
         -5    1    4    4    0  502 -0.92807293561E+01  0.25891632529E+02 -0.90992366161E+01  0.29349526050E+02  0.47000000000E+01 0.  1.
          5    1    3    3  503    0 -0.31115822618E+02  0.30250470688E+02  0.23952378579E+02  0.49790479347E+02  0.47000000000E+01 0. -1.
         -5    1    3    3    0  503 -0.36845493286E+02 -0.55877605519E+02  0.26428354714E+03  0.27266789408E+03  0.47000000000E+01 0. -1.
<mgrwt>
<rscale>  0 0.13717056E+03</rscale>
<asrwt>0</asrwt>
<pdfrwt beam="1">  1        2 0.60963929E-01 0.14456643E+03</pdfrwt>
<pdfrwt beam="2">  1       -2 0.84409089E-02 0.14456643E+03</pdfrwt>
<totfact> 0.67268068E+03</totfact>
</mgrwt>
</event>
<event>
 8    1  0.3551276E-004  0.1348509E+03  0.7546771E-02  0.1231911E+00
         -1   -1    0    0    0  501 -0.00000000000E+00  0.00000000000E+00  0.62918984942E+02  0.62918984942E+02  0.00000000000E+00 0.  1.
          1   -1    0    0  501    0  0.00000000000E+00 -0.00000000000E+00 -0.23277447608E+03  0.23277447608E+03  0.00000000000E+00 0. -1.
         25    2    1    2    0    0 -0.21683523033E+02 -0.45700796059E+02 -0.81852324362E+02  0.15774844919E+03  0.12500412907E+03 0.  0.
         23    2    1    2    0    0  0.21683523033E+02  0.45700796059E+02 -0.88003166773E+02  0.13794501183E+03  0.93410550774E+02 0.  0.
          5    1    3    3  502    0  0.28599409815E+02  0.23117634530E+02 -0.58487958066E+02  0.69247978358E+02  0.47000000000E+01 0. -1.
         -5    1    3    3    0  502 -0.50282932847E+02 -0.68818430589E+02 -0.23364366296E+02  0.88500470828E+02  0.47000000000E+01 0. -1.
          5    1    4    4  503    0  0.36833451345E+02 -0.10858673680E+02 -0.63373259557E+02  0.74248730352E+02  0.47000000000E+01 0. -1.
         -5    1    4    4    0  503 -0.15149928312E+02  0.56559469739E+02 -0.24629907216E+02  0.63696281481E+02  0.47000000000E+01 0.  1.
<mgrwt>
<rscale>  0 0.12704267E+03</rscale>
<asrwt>0</asrwt>
<pdfrwt beam="1">  1        1 0.35811459E-01 0.13485092E+03</pdfrwt>
<pdfrwt beam="2">  1       -1 0.96798436E-02 0.13485092E+03</pdfrwt>
<totfact> 0.73582523E+03</totfact>
</mgrwt>
</event>
<event>
 8    1  0.3551276E-004  0.1324746E+03  0.7546771E-02  0.1236863E+00
          2   -1    0    0  501    0  0.00000000000E+00  0.00000000000E+00  0.42606870342E+03  0.42606870342E+03  0.00000000000E+00 0. -1.
         -2   -1    0    0    0  501 -0.00000000000E+00 -0.00000000000E+00 -0.39634373314E+02  0.39634373314E+02  0.00000000000E+00 0.  1.
         25    2    1    2    0    0  0.41154024104E+02 -0.15174398562E+02  0.31524012198E+03  0.34194422139E+03  0.12500239984E+03 0.  0.
         23    2    1    2    0    0 -0.41154024104E+02  0.15174398562E+02  0.71194208134E+02  0.12375885535E+03  0.91234439407E+02 0.  0.
          5    1    4    4  502    0 -0.65265070925E+02 -0.92032978136E+01  0.52696379343E+02  0.84517622833E+02  0.47000000000E+01 0. -1.
         -5    1    4    4    0  502  0.24111046822E+02  0.24377696376E+02  0.18497828791E+02  0.39241232516E+02  0.47000000000E+01 0.  1.
          5    1    3    3  503    0 -0.29103222468E+02 -0.44033989691E+02  0.93018417202E+02  0.10705375166E+03  0.47000000000E+01 0.  1.
         -5    1    3    3    0  503  0.70257246572E+02  0.28859591129E+02  0.22222170477E+03  0.23489046973E+03  0.47000000000E+01 0.  1.
<mgrwt>
<rscale>  0 0.12385895E+03</rscale>
<asrwt>0</asrwt>
<pdfrwt beam="1">  1        2 0.65549028E-01 0.13247459E+03</pdfrwt>
<pdfrwt beam="2">  1       -2 0.60975962E-02 0.13247459E+03</pdfrwt>
<totfact> 0.10191138E+04</totfact>
</mgrwt>
</event>
<event>
 8    1  0.3551276E-004  0.1821361E+03  0.7546771E-02  0.1171444E+00
         -4   -1    0    0    0  501 -0.00000000000E+00  0.00000000000E+00  0.23872505082E+03  0.23872505082E+03  0.00000000000E+00 0.  1.
          4   -1    0    0  501    0  0.00000000000E+00 -0.00000000000E+00 -0.14257007292E+03  0.14257007292E+03  0.00000000000E+00 0. -1.
         25    2    1    2    0    0  0.12987183912E+03  0.26108795758E+02 -0.20671265838E+02  0.18330537233E+03  0.12500077792E+03 0.  0.
         23    2    1    2    0    0 -0.12987183912E+03 -0.26108795758E+02  0.11682624374E+03  0.19798975140E+03  0.89460642868E+02 0.  0.
          5    1    3    3  502    0  0.74771596829E+01  0.49937894233E+02 -0.28691528994E+02  0.58266585908E+02  0.47000000000E+01 0. -1.
         -5    1    4    4    0  503 -0.69187942768E+02 -0.11697952877E+02  0.11574072295E+03  0.13543196992E+03  0.47000000000E+01 0.  1.
          5    1    4    4  503    0 -0.60683896354E+02 -0.14410842881E+02  0.10855207850E+01  0.62557781487E+02  0.47000000000E+01 0. -1.
         -5    1    3    3    0  502  0.12239467944E+03 -0.23829098475E+02  0.80202631552E+01  0.12503878642E+03  0.47000000000E+01 0. -1.
<mgrwt>
<rscale>  0 0.17628860E+03</rscale>
<asrwt>0</asrwt>
<pdfrwt beam="1">  1        4 0.21933857E-01 0.18213610E+03</pdfrwt>
<pdfrwt beam="2">  1       -4 0.36726931E-01 0.18213610E+03</pdfrwt>
<totfact> 0.24048620E+02</totfact>
</mgrwt>
</event>
<event>
 8    1  0.3551276E-004  0.1623299E+03  0.7546771E-02  0.1193197E+00
          2   -1    0    0  501    0  0.00000000000E+00  0.00000000000E+00  0.57684571946E+02  0.57684571946E+02  0.00000000000E+00 0. -1.
         -2   -1    0    0    0  501 -0.00000000000E+00 -0.00000000000E+00 -0.41865631762E+03  0.41865631762E+03  0.00000000000E+00 0.  1.
         25    2    1    2    0    0  0.44314970735E+02  0.93607219719E+02 -0.13476179830E+03  0.21097803302E+03  0.12499943968E+03 0.  0.
         23    2    1    2    0    0 -0.44314970735E+02 -0.93607219719E+02 -0.22620994738E+03  0.26536285655E+03  0.92305888917E+02 0.  0.
          5    1    3    3  502    0 -0.33717235521E+02  0.66728339818E+02 -0.89568871589E+02  0.11676556026E+03  0.47000000000E+01 0.  1.
         -5    1    3    3    0  502  0.78032206256E+02  0.26878879901E+02 -0.45192926706E+02  0.94212472752E+02  0.47000000000E+01 0.  1.
          5    1    4    4  503    0  0.12573885464E+02 -0.71258779634E+02 -0.87020400463E+02  0.11327204583E+03  0.47000000000E+01 0. -1.
         -5    1    4    4    0  503 -0.56888856199E+02 -0.22348440084E+02 -0.13918954691E+03  0.15209081072E+03  0.47000000000E+01 0.  1.
<mgrwt>
<rscale>  0 0.15607841E+03</rscale>
<asrwt>0</asrwt>
<pdfrwt beam="1">  1        2 0.88745497E-02 0.16232987E+03</pdfrwt>
<pdfrwt beam="2">  1       -2 0.64408663E-01 0.16232987E+03</pdfrwt>
<totfact> 0.16576669E+03</totfact>
</mgrwt>
</event>
<event>
 8    1  0.3551276E-004  0.1268410E+03  0.7546771E-02  0.1245959E+00
          1   -1    0    0  501    0  0.00000000000E+00  0.00000000000E+00  0.52720761747E+03  0.52720761747E+03  0.00000000000E+00 0. -1.
         -1   -1    0    0    0  501 -0.00000000000E+00 -0.00000000000E+00 -0.26000403087E+02  0.26000403087E+02  0.00000000000E+00 0.  1.
         25    2    1    2    0    0  0.13639945869E+02 -0.16677433390E+02  0.19757408601E+03  0.23478534666E+03  0.12499781852E+03 0.  0.
         23    2    1    2    0    0 -0.13639945869E+02  0.16677433390E+02  0.30363312838E+03  0.31842267390E+03  0.93465168371E+02 0.  0.
          5    1    4    4  502    0 -0.44322068748E+02  0.16132601632E+02  0.26326205091E+03  0.26749524120E+03  0.47000000000E+01 0. -1.
         -5    1    4    4    0  502  0.30682122879E+02  0.54483175752E+00  0.40371077465E+02  0.50927432703E+02  0.47000000000E+01 0.  1.
          5    1    3    3  503    0  0.63197313025E+02 -0.79027496875E+01  0.15854510152E+03  0.17092393934E+03  0.47000000000E+01 0. -1.
         -5    1    3    3    0  503 -0.49557367156E+02 -0.87746837024E+01  0.39028984491E+02  0.63861407312E+02  0.47000000000E+01 0. -1.
<mgrwt>
<rscale>  0 0.11828176E+03</rscale>
<asrwt>0</asrwt>
<pdfrwt beam="1">  1        1 0.81108856E-01 0.12684100E+03</pdfrwt>
<pdfrwt beam="2">  1       -1 0.40000624E-02 0.12684100E+03</pdfrwt>
<totfact> 0.98097723E+03</totfact>
</mgrwt>
</event>
<event>
 8    1  0.3551276E-004  0.1286832E+03  0.7546771E-02  0.1243829E+00
         -4   -1    0    0    0  501 -0.00000000000E+00  0.00000000000E+00  0.89550590055E+02  0.89550590055E+02  0.00000000000E+00 0.  1.
          4   -1    0    0  501    0  0.00000000000E+00 -0.00000000000E+00 -0.14797021775E+03  0.14797021775E+03  0.00000000000E+00 0. -1.
         25    2    1    2    0    0 -0.20956073549E+02 -0.22240494843E+02 -0.59169853668E+02  0.14163491585E+03  0.12500232468E+03 0.  0.
         23    2    1    2    0    0  0.20956073549E+02  0.22240494843E+02  0.75022597622E+00  0.95885891952E+02  0.90883138188E+02 0.  0.
          5    1    4    4  502    0 -0.88106685578E+01  0.51832562842E+02 -0.59582023977E+01  0.53120924568E+02  0.47000000000E+01 0. -1.
         -5    1    4    4    0  502  0.29766742106E+02 -0.29592067998E+02  0.67084283740E+01  0.42764967383E+02  0.47000000000E+01 0.  1.
          5    1    3    3  503    0 -0.56340182687E+02 -0.23900034888E+02  0.11496721139E+02  0.62447517563E+02  0.47000000000E+01 0. -1.
         -5    1    3    3    0  503  0.35384109138E+02  0.16595400445E+01 -0.70666574807E+02  0.79187398288E+02  0.47000000000E+01 0. -1.
<mgrwt>
<rscale>  0 0.11955751E+03</rscale>
<asrwt>0</asrwt>
<pdfrwt beam="1">  1        4 0.22764649E-01 0.12868325E+03</pdfrwt>
<pdfrwt beam="2">  1       -4 0.13777014E-01 0.12868325E+03</pdfrwt>
<totfact> 0.12694341E+03</totfact>
</mgrwt>
</event>
<event>
 8    1  0.3551276E-004  0.1822409E+03  0.7546771E-02  0.1171025E+00
          2   -1    0    0  501    0  0.00000000000E+00  0.00000000000E+00  0.28182492967E+03  0.28182492967E+03  0.00000000000E+00 0. -1.
         -2   -1    0    0    0  501 -0.00000000000E+00 -0.00000000000E+00 -0.10609437949E+03  0.10609437949E+03  0.00000000000E+00 0.  1.
         25    2    1    2    0    0  0.12489648398E+03 -0.44588371814E+02  0.70034783160E+02  0.19523472811E+03  0.12499789437E+03 0.  0.
         23    2    1    2    0    0 -0.12489648398E+03  0.44588371814E+02  0.10569576701E+03  0.19268458105E+03  0.91479494955E+02 0.  0.
          5    1    3    3  502    0  0.18823200945E+02  0.39334059360E+02  0.23678595637E+01  0.43922407475E+02  0.47000000000E+01 0. -1.
         -5    1    4    4    0  503 -0.13024088973E+03  0.22056007631E+02  0.69174686023E+02  0.14918573664E+03  0.47000000000E+01 0.  1.
          5    1    4    4  503    0  0.53444057451E+01  0.22532364183E+02  0.36521080990E+02  0.43498844411E+02  0.47000000000E+01 0. -1.
         -5    1    3    3    0  502  0.10607328304E+03 -0.83922431173E+02  0.67666923596E+02  0.15131232064E+03  0.47000000000E+01 0. -1.
<mgrwt>
<rscale>  0 0.17671097E+03</rscale>
<asrwt>0</asrwt>
<pdfrwt beam="1">  1        2 0.43357681E-01 0.18224085E+03</pdfrwt>
<pdfrwt beam="2">  1       -2 0.16322212E-01 0.18224085E+03</pdfrwt>
<totfact> 0.34054667E+03</totfact>
</mgrwt>
</event>
<event>
 8    1  0.3551276E-004  0.3128261E+03  0.7546771E-02  0.1080364E+00
         -1   -1    0    0    0  501 -0.00000000000E+00  0.00000000000E+00  0.52015976067E+02  0.52015976067E+02  0.00000000000E+00 0.  1.
          1   -1    0    0  501    0  0.00000000000E+00 -0.00000000000E+00 -0.18140155267E+04  0.18140155267E+04  0.00000000000E+00 0. -1.
         25    2    1    2    0    0 -0.26301995378E+03 -0.11426447148E+03 -0.89796102204E+03  0.95089125655E+03  0.12499727658E+03 0.  0.
         23    2    1    2    0    0  0.26301995378E+03  0.11426447148E+03 -0.86403852856E+03  0.91514024618E+03  0.93183828076E+02 0.  0.
          5    1    4    4  502    0  0.10874250481E+03  0.34239274698E+02 -0.21724503246E+03  0.24538694833E+03  0.47000000000E+01 0. -1.
         -5    1    3    3    0  503 -0.23346574627E+02  0.25811806805E+02 -0.95025031224E+02  0.10130724790E+03  0.47000000000E+01 0.  1.
          5    1    3    3  503    0 -0.23967337916E+03 -0.14007627828E+03 -0.80293599081E+03  0.84958400865E+03  0.47000000000E+01 0.  1.
         -5    1    4    4    0  502  0.15427744898E+03  0.80025196780E+02 -0.64679349610E+03  0.66975329785E+03  0.47000000000E+01 0.  1.
<mgrwt>
<rscale>  0 0.30996249E+03</rscale>
<asrwt>0</asrwt>
<pdfrwt beam="1">  1        1 0.27907927E+00 0.31282613E+03</pdfrwt>
<pdfrwt beam="2">  1       -1 0.80024591E-02 0.31282613E+03</pdfrwt>
<totfact> 0.38144871E+02</totfact>
</mgrwt>
</event>
<event>
 8    1  0.3551276E-004  0.1286347E+03  0.7546771E-02  0.1244265E+00
         -2   -1    0    0    0  501 -0.00000000000E+00  0.00000000000E+00  0.98993435790E+02  0.98993435790E+02  0.00000000000E+00 0.  1.
          2   -1    0    0  501    0  0.00000000000E+00 -0.00000000000E+00 -0.13330412540E+03  0.13330412540E+03  0.00000000000E+00 0. -1.
         25    2    1    2    0    0 -0.19686648018E+02 -0.22949066087E+02  0.64227734905E+01  0.12879489972E+03  0.12503059797E+03 0.  0.
         23    2    1    2    0    0  0.19686648018E+02  0.22949066087E+02 -0.40733463096E+02  0.10350266147E+03  0.90218413703E+02 0.  0.
          5    1    4    4  502    0 -0.20187968682E+01  0.53251947538E+02 -0.38416322843E+02  0.65861592132E+02  0.47000000000E+01 0. -1.
         -5    1    3    3    0  503 -0.26512894122E+02 -0.72809810526E+02 -0.14376242316E+01  0.77642506573E+02  0.47000000000E+01 0. -1.
          5    1    3    3  503    0  0.68262461038E+01  0.49860744439E+02  0.78603977222E+01  0.51152393143E+02  0.47000000000E+01 0. -1.
         -5    1    4    4    0  502  0.21705444886E+02 -0.30302881451E+02 -0.23171402531E+01  0.37641069338E+02  0.47000000000E+01 0.  1.
<mgrwt>
<rscale>  0 0.11929468E+03</rscale>
<asrwt>0</asrwt>
<pdfrwt beam="1">  1        2 0.20508327E-01 0.12863465E+03</pdfrwt>
<pdfrwt beam="2">  1       -2 0.15229759E-01 0.12863465E+03</pdfrwt>
<totfact> 0.84620343E+03</totfact>
</mgrwt>
</event>
<event>
 8    1  0.3551276E-004  0.1351406E+03  0.7546771E-02  0.1232107E+00
         -1   -1    0    0    0  501 -0.00000000000E+00  0.00000000000E+00  0.50425799263E+02  0.50425799263E+02  0.00000000000E+00 0.  1.
          1   -1    0    0  501    0  0.00000000000E+00 -0.00000000000E+00 -0.36050341283E+03  0.36050341283E+03  0.00000000000E+00 0. -1.
         25    2    1    2    0    0 -0.73614517003E+01 -0.50779524553E+02 -0.77712157655E+02  0.15589154034E+03  0.12502096551E+03 0.  0.
         23    2    1    2    0    0  0.73614517003E+01  0.50779524553E+02 -0.23236545591E+03  0.25503767176E+03  0.91748339657E+02 0.  0.
          5    1    4    4  502    0 -0.14290475691E+02  0.60000126944E+02 -0.21900063120E+03  0.22756888933E+03  0.47000000000E+01 0. -1.
         -5    1    3    3    0  503 -0.42057697593E+02 -0.18266557787E+02  0.17547312124E+02  0.49320535510E+02  0.47000000000E+01 0. -1.
          5    1    3    3  503    0  0.34696245892E+02 -0.32512966767E+02 -0.95259469779E+02  0.10657100483E+03  0.47000000000E+01 0. -1.
         -5    1    4    4    0  502  0.21651927391E+02 -0.92206023905E+01 -0.13364824717E+02  0.27468782425E+02  0.47000000000E+01 0.  1.
<mgrwt>
<rscale>  0 0.12691480E+03</rscale>
<asrwt>0</asrwt>
<pdfrwt beam="1">  1        1 0.55462063E-01 0.13514064E+03</pdfrwt>
<pdfrwt beam="2">  1       -1 0.77578153E-02 0.13514064E+03</pdfrwt>
<totfact> 0.59846066E+03</totfact>
</mgrwt>
</event>
<event>
 8    1  0.3551276E-004  0.1862077E+03  0.7546771E-02  0.1166960E+00
          2   -1    0    0  501    0  0.00000000000E+00  0.00000000000E+00  0.14466038809E+03  0.14466038809E+03  0.00000000000E+00 0. -1.
         -2   -1    0    0    0  501 -0.00000000000E+00 -0.00000000000E+00 -0.21480448300E+03  0.21480448300E+03  0.00000000000E+00 0.  1.
         25    2    1    2    0    0  0.16598057659E+02 -0.13701326393E+03 -0.47337748533E+02  0.19213063336E+03  0.12500075131E+03 0.  0.
         23    2    1    2    0    0 -0.16598057659E+02  0.13701326393E+03 -0.22806346381E+02  0.16733423773E+03  0.91828577642E+02 0.  0.
          5    1    3    3  502    0  0.45124948618E+02  0.69896117409E+00 -0.86091350080E+01  0.46183944614E+02  0.47000000000E+01 0.  1.
         -5    1    4    4    0  503  0.25402344578E+02  0.30647475504E+02 -0.33693733276E+02  0.52363198211E+02  0.47000000000E+01 0.  1.
          5    1    4    4  503    0 -0.42000402237E+02  0.10636578842E+03  0.10887386895E+02  0.11497103952E+03  0.47000000000E+01 0. -1.
         -5    1    3    3    0  502 -0.28526890959E+02 -0.13771222510E+03 -0.38728613525E+02  0.14594668874E+03  0.47000000000E+01 0.  1.
<mgrwt>
<rscale>  0 0.18087418E+03</rscale>
<asrwt>0</asrwt>
<pdfrwt beam="1">  1        2 0.22255444E-01 0.18620773E+03</pdfrwt>
<pdfrwt beam="2">  1       -2 0.33046843E-01 0.18620773E+03</pdfrwt>
<totfact> 0.20664907E+03</totfact>
</mgrwt>
</event>
<event>
 8    1  0.3551276E-004  0.1515688E+03  0.7546771E-02  0.1207492E+00
          1   -1    0    0  501    0  0.00000000000E+00  0.00000000000E+00  0.10867202525E+03  0.10867202525E+03  0.00000000000E+00 0. -1.
         -1   -1    0    0    0  501 -0.00000000000E+00 -0.00000000000E+00 -0.24570504417E+03  0.24570504417E+03  0.00000000000E+00 0.  1.
         25    2    1    2    0    0 -0.73425493284E+02 -0.44239321013E+02  0.20881894856E+02  0.15300053620E+03  0.12499875982E+03 0.  0.
         23    2    1    2    0    0  0.73425493284E+02  0.44239321013E+02 -0.15791491377E+03  0.20137653322E+03  0.90922865957E+02 0.  0.
          5    1    4    4  502    0  0.20786320964E+02  0.28053250064E+02 -0.12550393525E+01  0.35252249604E+02  0.47000000000E+01 0. -1.
         -5    1    3    3    0  503 -0.16215351482E+02  0.42873741468E+02 -0.22821039815E+01  0.46134513433E+02  0.47000000000E+01 0.  1.
          5    1    3    3  503    0 -0.57210141802E+02 -0.87113062480E+02  0.23163998837E+02  0.10686602277E+03  0.47000000000E+01 0.  1.
         -5    1    4    4    0  502  0.52639172320E+02  0.16186070949E+02 -0.15665987442E+03  0.16612428362E+03  0.47000000000E+01 0.  1.
<mgrwt>
<rscale>  0 0.14442804E+03</rscale>
<asrwt>0</asrwt>
<pdfrwt beam="1">  1        1 0.16718773E-01 0.15156883E+03</pdfrwt>
<pdfrwt beam="2">  1       -1 0.37800775E-01 0.15156883E+03</pdfrwt>
<totfact> 0.21534067E+03</totfact>
</mgrwt>
</event>
<event>
 8    1  0.3551276E-004  0.1413125E+03  0.7546771E-02  0.1222957E+00
          1   -1    0    0  501    0  0.00000000000E+00  0.00000000000E+00  0.13798637194E+03  0.13798637194E+03  0.00000000000E+00 0. -1.
         -1   -1    0    0    0  501 -0.00000000000E+00 -0.00000000000E+00 -0.11674702811E+03  0.11674702811E+03  0.00000000000E+00 0.  1.
         25    2    1    2    0    0  0.32709791425E+02  0.57220901894E+02  0.25072581392E+02  0.14351953246E+03  0.12500023917E+03 0.  0.
         23    2    1    2    0    0 -0.32709791425E+02 -0.57220901894E+02 -0.38332375645E+01  0.11121386758E+03  0.89496751695E+02 0.  0.
          5    1    4    4  502    0  0.26526085639E+02 -0.39216608532E+02 -0.10636779518E+02  0.48752504372E+02  0.47000000000E+01 0. -1.
         -5    1    4    4    0  502 -0.59235877064E+02 -0.18004293362E+02  0.68035419531E+01  0.62461363210E+02  0.47000000000E+01 0.  1.
          5    1    3    3  503    0  0.69998208801E+02  0.57766631249E+01 -0.95027210180E+01  0.71031758946E+02  0.47000000000E+01 0. -1.
         -5    1    3    3    0  503 -0.37288417376E+02  0.51444238769E+02  0.34575302410E+02  0.72487773518E+02  0.47000000000E+01 0. -1.
<mgrwt>
<rscale>  0 0.13307934E+03</rscale>
<asrwt>0</asrwt>
<pdfrwt beam="1">  1        1 0.21228673E-01 0.14131250E+03</pdfrwt>
<pdfrwt beam="2">  1       -1 0.17961081E-01 0.14131250E+03</pdfrwt>
<totfact> 0.54290559E+03</totfact>
</mgrwt>
</event>
<event>
 8    1  0.3551276E-004  0.1402215E+03  0.7546771E-02  0.1222623E+00
          1   -1    0    0  501    0  0.00000000000E+00  0.00000000000E+00  0.67765655374E+03  0.67765655374E+03  0.00000000000E+00 0. -1.
         -1   -1    0    0    0  501 -0.00000000000E+00 -0.00000000000E+00 -0.24152985236E+02  0.24152985236E+02  0.00000000000E+00 0.  1.
         25    2    1    2    0    0 -0.29676376457E+02  0.56184318128E+02  0.39159611438E+03  0.41594421824E+03  0.12499884388E+03 0.  0.
         23    2    1    2    0    0  0.29676376457E+02 -0.56184318128E+02  0.26190745413E+03  0.28586532073E+03  0.95321047761E+02 0.  0.
          5    1    3    3  502    0 -0.70252631207E+02  0.18175857471E+02  0.13486812952E+03  0.15322302812E+03  0.47000000000E+01 0. -1.
         -5    1    4    4    0  503  0.23753094051E+02  0.14526277703E+01  0.82339966171E+01  0.25616563093E+02  0.47000000000E+01 0.  1.
          5    1    4    4  503    0  0.59232824066E+01 -0.57636945899E+02  0.25367345751E+03  0.26024875764E+03  0.47000000000E+01 0. -1.
         -5    1    3    3    0  502  0.40576254749E+02  0.38008460657E+02  0.25672798486E+03  0.26272119012E+03  0.47000000000E+01 0. -1.
<mgrwt>
<rscale>  0 0.13331134E+03</rscale>
<asrwt>0</asrwt>
<pdfrwt beam="1">  1        1 0.10425484E+00 0.14022152E+03</pdfrwt>
<pdfrwt beam="2">  1       -1 0.37158444E-02 0.14022152E+03</pdfrwt>
<totfact> 0.78162564E+03</totfact>
</mgrwt>
</event>
<event>
 8    1  0.3551276E-004  0.1697953E+03  0.7546771E-02  0.1184191E+00
          1   -1    0    0  501    0  0.00000000000E+00  0.00000000000E+00  0.31907411397E+03  0.31907411397E+03  0.00000000000E+00 0. -1.
         -1   -1    0    0    0  501 -0.00000000000E+00 -0.00000000000E+00 -0.33322384654E+03  0.33322384654E+03  0.00000000000E+00 0.  1.
         25    2    1    2    0    0  0.30334692058E+02  0.11083787631E+03  0.27745880083E+03  0.32529036812E+03  0.12500083626E+03 0.  0.
         23    2    1    2    0    0 -0.30334692058E+02 -0.11083787631E+03 -0.29160853341E+03  0.32700759238E+03  0.93237333460E+02 0.  0.
          5    1    3    3  502    0  0.61020412586E+02  0.12215895949E+03  0.22813994746E+03  0.26592522965E+03  0.47000000000E+01 0. -1.
         -5    1    4    4    0  503  0.18376655053E+01 -0.95256571807E+02 -0.26653831877E+03  0.28309354789E+03  0.47000000000E+01 0.  1.
          5    1    4    4  503    0 -0.32172357563E+02 -0.15581304507E+02 -0.25070214642E+02  0.43914044490E+02  0.47000000000E+01 0. -1.
         -5    1    3    3    0  502 -0.30685720529E+02 -0.11321083172E+02  0.49318853373E+02  0.59365138478E+02  0.47000000000E+01 0. -1.
<mgrwt>
<rscale>  0 0.16405740E+03</rscale>
<asrwt>0</asrwt>
<pdfrwt beam="1">  1        1 0.49088325E-01 0.16979528E+03</pdfrwt>
<pdfrwt beam="2">  1       -1 0.51265207E-01 0.16979528E+03</pdfrwt>
<totfact> 0.32230885E+02</totfact>
</mgrwt>
</event>
<event>
 8    1  0.3551276E-004  0.1293546E+03  0.7546771E-02  0.1244326E+00
          1   -1    0    0  501    0  0.00000000000E+00  0.00000000000E+00  0.39572864657E+03  0.39572864657E+03  0.00000000000E+00 0. -1.
         -1   -1    0    0    0  501 -0.00000000000E+00 -0.00000000000E+00 -0.32959136357E+02  0.32959136357E+02  0.00000000000E+00 0.  1.
         25    2    1    2    0    0  0.26391056082E+01  0.33184642921E+02  0.25578354452E+03  0.28663187944E+03  0.12499770900E+03 0.  0.
         23    2    1    2    0    0 -0.26391056082E+01 -0.33184642921E+02  0.10698596569E+03  0.14205590349E+03  0.87325239526E+02 0.  0.
          5    1    4    4  502    0 -0.31555301500E+01  0.22754741034E+02  0.72437200427E+02  0.76137859280E+02  0.47000000000E+01 0. -1.
         -5    1    3    3    0  503 -0.59398396923E+02  0.26348090684E+02  0.15296356861E+03  0.16625984110E+03  0.47000000000E+01 0.  1.
          5    1    3    3  503    0  0.62037502532E+02  0.68365522369E+01  0.10281997591E+03  0.12037203834E+03  0.47000000000E+01 0.  1.
         -5    1    4    4    0  502  0.51642454176E+00 -0.55939383955E+02  0.34548765264E+02  0.65918044213E+02  0.47000000000E+01 0.  1.
<mgrwt>
<rscale>  0 0.11925795E+03</rscale>
<asrwt>0</asrwt>
<pdfrwt beam="1">  1        1 0.60881327E-01 0.12935460E+03</pdfrwt>
<pdfrwt beam="2">  1       -1 0.50706366E-02 0.12935460E+03</pdfrwt>
<totfact> 0.10010972E+04</totfact>
</mgrwt>
</event>
<event>
 8    1  0.3551276E-004  0.2145703E+03  0.7546771E-02  0.1141476E+00
          1   -1    0    0  501    0  0.00000000000E+00  0.00000000000E+00  0.36389541846E+03  0.36389541846E+03  0.00000000000E+00 0.  1.
         -1   -1    0    0    0  501 -0.00000000000E+00 -0.00000000000E+00 -0.11819150916E+03  0.11819150916E+03  0.00000000000E+00 0. -1.
         25    2    1    2    0    0  0.15002298155E+03  0.88929532602E+02  0.99443935930E+02  0.23649419792E+03  0.12500020998E+03 0.  0.
         23    2    1    2    0    0 -0.15002298155E+03 -0.88929532602E+02  0.14625997337E+03  0.24559272969E+03  0.92241272254E+02 0.  0.
          5    1    4    4  502    0  0.14158478342E+01 -0.31494480537E+02  0.86936851369E+01  0.33039023755E+02  0.47000000000E+01 0. -1.
         -5    1    3    3    0  503 -0.19901641506E+02  0.80316006864E+01  0.26927414580E+02  0.34752807083E+02  0.47000000000E+01 0.  1.
          5    1    3    3  503    0  0.16992462306E+03  0.80897931915E+02  0.72516521350E+02  0.20174139084E+03  0.47000000000E+01 0.  1.
         -5    1    4    4    0  502 -0.15143882939E+03 -0.57435052064E+02  0.13756628823E+03  0.21255370594E+03  0.47000000000E+01 0.  1.
<mgrwt>
<rscale>  0 0.21011357E+03</rscale>
<asrwt>0</asrwt>
<pdfrwt beam="1">  1        1 0.55983910E-01 0.21457029E+03</pdfrwt>
<pdfrwt beam="2">  1       -1 0.18183309E-01 0.21457029E+03</pdfrwt>
<totfact> 0.16043741E+03</totfact>
</mgrwt>
</event>
<event>
 8    1  0.3551276E-004  0.1877235E+03  0.7546771E-02  0.1165443E+00
          2   -1    0    0  501    0  0.00000000000E+00  0.00000000000E+00  0.17850339866E+04  0.17850339866E+04  0.00000000000E+00 0. -1.
         -2   -1    0    0    0  501 -0.00000000000E+00 -0.00000000000E+00 -0.17741488027E+02  0.17741488027E+02  0.00000000000E+00 0.  1.
         25    2    1    2    0    0  0.43218255005E+01  0.13999136902E+03  0.87921767894E+03  0.89903494072E+03  0.12499534433E+03 0.  0.
         23    2    1    2    0    0 -0.43218255005E+01 -0.13999136902E+03  0.88807481968E+03  0.90374053395E+03  0.91944579949E+02 0.  0.
          5    1    3    3  502    0  0.54287631471E+02  0.12322658881E+03  0.64251499711E+03  0.65649032791E+03  0.47000000000E+01 0.  1.
         -5    1    4    4    0  503 -0.44633117172E+02 -0.43778122493E+02  0.30264411559E+03  0.30906987860E+03  0.47000000000E+01 0.  1.
          5    1    4    4  503    0  0.40311291671E+02 -0.96213246527E+02  0.58543070409E+03  0.59467065535E+03  0.47000000000E+01 0. -1.
         -5    1    3    3    0  502 -0.49965805971E+02  0.16764780209E+02  0.23670268183E+03  0.24254461282E+03  0.47000000000E+01 0.  1.
<mgrwt>
<rscale>  0 0.18246070E+03</rscale>
<asrwt>0</asrwt>
<pdfrwt beam="1">  1        2 0.27462047E+00 0.18772346E+03</pdfrwt>
<pdfrwt beam="2">  1       -2 0.27294611E-02 0.18772346E+03</pdfrwt>
<totfact> 0.46811885E+03</totfact>
</mgrwt>
</event>
<event>
 8    1  0.3551276E-004  0.1285363E+03  0.7546771E-02  0.1244550E+00
          2   -1    0    0  501    0  0.00000000000E+00  0.00000000000E+00  0.51459353400E+02  0.51459353400E+02  0.00000000000E+00 0. -1.
         -2   -1    0    0    0  501 -0.00000000000E+00 -0.00000000000E+00 -0.24423979893E+03  0.24423979893E+03  0.00000000000E+00 0.  1.
         25    2    1    2    0    0 -0.52864243103E+01 -0.29479924289E+02 -0.98046877340E+02  0.16166251476E+03  0.12499826520E+03 0.  0.
         23    2    1    2    0    0  0.52864243103E+01  0.29479924289E+02 -0.94733568190E+02  0.13403663757E+03  0.89968655939E+02 0.  0.
          5    1    4    4  502    0  0.35719233591E+02 -0.12756238660E+02 -0.60477763021E+02  0.71541841555E+02  0.47000000000E+01 0. -1.
         -5    1    4    4    0  502 -0.30432809281E+02  0.42236162949E+02 -0.34255805169E+02  0.62494796016E+02  0.47000000000E+01 0.  1.
          5    1    3    3  503    0  0.32115304957E+02 -0.18885558220E+02 -0.11351241469E+03  0.11956260039E+03  0.47000000000E+01 0.  1.
         -5    1    3    3    0  503 -0.37401729267E+02 -0.10594366068E+02  0.15465537353E+02  0.42099914372E+02  0.47000000000E+01 0.  1.
<mgrwt>
<rscale>  0 0.11912353E+03</rscale>
<asrwt>0</asrwt>
<pdfrwt beam="1">  1        2 0.79168235E-02 0.12853629E+03</pdfrwt>
<pdfrwt beam="2">  1       -2 0.37575354E-01 0.12853629E+03</pdfrwt>
<totfact> 0.54671345E+03</totfact>
</mgrwt>
</event>
<event>
 8    1  0.3551276E-004  0.2018730E+03  0.7546771E-02  0.1152532E+00
         -1   -1    0    0    0  501 -0.00000000000E+00  0.00000000000E+00  0.77151044268E+02  0.77151044268E+02  0.00000000000E+00 0.  1.
          1   -1    0    0  501    0  0.00000000000E+00 -0.00000000000E+00 -0.76453732259E+03  0.76453732259E+03  0.00000000000E+00 0. -1.
         25    2    1    2    0    0  0.69676792529E+02  0.14238091632E+03 -0.61236589449E+03  0.64478267183E+03  0.12500209760E+03 0.  0.
         23    2    1    2    0    0 -0.69676792529E+02 -0.14238091632E+03 -0.75020383828E+02  0.19690569503E+03  0.89535545980E+02 0.  0.
          5    1    4    4  502    0  0.70960190118E+01 -0.79507327956E+02 -0.16630232677E+02  0.81672659583E+02  0.47000000000E+01 0.  1.
         -5    1    4    4    0  502 -0.76772811540E+02 -0.62873588369E+02 -0.58390151151E+02  0.11523303544E+03  0.47000000000E+01 0. -1.
          5    1    3    3  503    0 -0.28793321732E+02  0.43173146517E+02 -0.26945786469E+03  0.27444964347E+03  0.47000000000E+01 0. -1.
         -5    1    3    3    0  503  0.98470114260E+02  0.99207769808E+02 -0.34290802980E+03  0.37033302836E+03  0.47000000000E+01 0. -1.
<mgrwt>
<rscale>  0 0.19672472E+03</rscale>
<asrwt>0</asrwt>
<pdfrwt beam="1">  1        1 0.11762113E+00 0.20187299E+03</pdfrwt>
<pdfrwt beam="2">  1       -1 0.11869392E-01 0.20187299E+03</pdfrwt>
<totfact> 0.11524500E+03</totfact>
</mgrwt>
</event>
<event>
 8    1  0.3551276E-004  0.1360962E+03  0.7546771E-02  0.1230712E+00
          1   -1    0    0  501    0  0.00000000000E+00  0.00000000000E+00  0.18682297780E+02  0.18682297780E+02  0.00000000000E+00 0. -1.
         -1   -1    0    0    0  501 -0.00000000000E+00 -0.00000000000E+00 -0.78982404749E+03  0.78982404749E+03  0.00000000000E+00 0.  1.
         25    2    1    2    0    0  0.53182893533E+02 -0.82996255740E+01 -0.46830694712E+03  0.48768184885E+03  0.12499954013E+03 0.  0.
         23    2    1    2    0    0 -0.53182893533E+02  0.82996255740E+01 -0.30283480260E+03  0.32082449642E+03  0.91225741383E+02 0.  0.
          5    1    4    4  502    0  0.61277645025E+00 -0.35212315304E+02 -0.82272257974E+02  0.89616388435E+02  0.47000000000E+01 0. -1.
         -5    1    4    4    0  502 -0.53795669984E+02  0.43511940878E+02 -0.22056254462E+03  0.23120810799E+03  0.47000000000E+01 0.  1.
          5    1    3    3  503    0  0.58951369138E+02 -0.56949643427E+02 -0.35089992236E+03  0.36037670752E+03  0.47000000000E+01 0. -1.
         -5    1    3    3    0  503 -0.57684756047E+01  0.48650017853E+02 -0.11740702475E+03  0.12730514133E+03  0.47000000000E+01 0. -1.
<mgrwt>
<rscale>  0 0.12782948E+03</rscale>
<asrwt>0</asrwt>
<pdfrwt beam="1">  1        1 0.28741994E-02 0.13609625E+03</pdfrwt>
<pdfrwt beam="2">  1       -1 0.12151140E+00 0.13609625E+03</pdfrwt>
<totfact> 0.22499408E+03</totfact>
</mgrwt>
</event>
<event>
 8    1  0.3551276E-004  0.1353100E+03  0.7546771E-02  0.1231847E+00
          1   -1    0    0  501    0  0.00000000000E+00  0.00000000000E+00  0.71765812719E+03  0.71765812719E+03  0.00000000000E+00 0. -1.
         -1   -1    0    0    0  501 -0.00000000000E+00 -0.00000000000E+00 -0.21517180209E+02  0.21517180209E+02  0.00000000000E+00 0.  1.
         25    2    1    2    0    0  0.37822747569E+02 -0.35410251353E+02  0.29681589454E+03  0.32620310445E+03  0.12499737584E+03 0.  0.
         23    2    1    2    0    0 -0.37822747569E+02  0.35410251353E+02  0.39932505245E+03  0.41297220295E+03  0.91657497063E+02 0.  0.
          5    1    4    4  502    0 -0.26067423296E+02  0.66546811224E+02  0.27772807047E+03  0.28681520142E+03  0.47000000000E+01 0. -1.
         -5    1    3    3    0  503  0.66576952719E+02 -0.26376938560E+02  0.28432240803E+03  0.29323975724E+03  0.47000000000E+01 0.  1.
          5    1    3    3  503    0 -0.28754205150E+02 -0.90333127930E+01  0.12493486511E+02  0.32963347206E+02  0.47000000000E+01 0.  1.
         -5    1    4    4    0  502 -0.11755324273E+02 -0.31136559871E+02  0.12159698198E+03  0.12615700153E+03  0.47000000000E+01 0.  1.
<mgrwt>
<rscale>  0 0.12708433E+03</rscale>
<asrwt>0</asrwt>
<pdfrwt beam="1">  1        1 0.11040892E+00 0.13530998E+03</pdfrwt>
<pdfrwt beam="2">  1       -1 0.33103360E-02 0.13530998E+03</pdfrwt>
<totfact> 0.85101676E+03</totfact>
</mgrwt>
</event>
<event>
 8    1  0.3551276E-004  0.1308227E+03  0.7546771E-02  0.1239676E+00
         -1   -1    0    0    0  501 -0.00000000000E+00  0.00000000000E+00  0.11468525374E+02  0.11468525374E+02  0.00000000000E+00 0.  1.
          1   -1    0    0  501    0  0.00000000000E+00 -0.00000000000E+00 -0.13167552129E+04  0.13167552129E+04  0.00000000000E+00 0. -1.
         25    2    1    2    0    0  0.78579903785E+01  0.37772135395E+02 -0.49955002150E+03  0.51639597799E+03  0.12500439941E+03 0.  0.
         23    2    1    2    0    0 -0.78579903785E+01 -0.37772135395E+02 -0.80573666599E+03  0.81182776025E+03  0.91456301982E+02 0.  0.
          5    1    4    4  502    0  0.26338041857E+02  0.18765233796E+02 -0.29873009500E+03  0.30051220625E+03  0.47000000000E+01 0. -1.
         -5    1    4    4    0  502 -0.34196032236E+02 -0.56537369191E+02 -0.50700657099E+03  0.51131555400E+03  0.47000000000E+01 0.  1.
          5    1    3    3  503    0  0.56734776565E+02 -0.13787734352E+02 -0.19340429521E+03  0.20207980576E+03  0.47000000000E+01 0.  1.
         -5    1    3    3    0  503 -0.48876786186E+02  0.51559869746E+02 -0.30614572630E+03  0.31431617223E+03  0.47000000000E+01 0.  1.
<mgrwt>
<rscale>  0 0.12209756E+03</rscale>
<asrwt>0</asrwt>
<pdfrwt beam="1">  1        1 0.20257776E+00 0.13082271E+03</pdfrwt>
<pdfrwt beam="2">  1       -1 0.17643882E-02 0.13082271E+03</pdfrwt>
<totfact> 0.76159712E+03</totfact>
</mgrwt>
</event>
<event>
 8    1  0.3551276E-004  0.1369507E+03  0.7546771E-02  0.1229016E+00
         -2   -1    0    0    0  501 -0.00000000000E+00  0.00000000000E+00  0.24395376422E+03  0.24395376422E+03  0.00000000000E+00 0.  1.
          2   -1    0    0  501    0  0.00000000000E+00 -0.00000000000E+00 -0.69090444456E+02  0.69090444456E+02  0.00000000000E+00 0. -1.
         25    2    1    2    0    0 -0.52795337987E+02  0.18425111112E+02  0.44554175019E+02  0.14401581538E+03  0.12501459169E+03 0.  0.
         23    2    1    2    0    0  0.52795337987E+02 -0.18425111112E+02  0.13030914474E+03  0.16902839329E+03  0.91996152657E+02 0.  0.
          5    1    4    4  502    0 -0.17624919373E+02 -0.24331781063E+02  0.68809367705E+02  0.75229598142E+02  0.47000000000E+01 0. -1.
         -5    1    4    4    0  502  0.70420257360E+02  0.59066699517E+01  0.61499777036E+02  0.93798795152E+02  0.47000000000E+01 0.  1.
          5    1    3    3  503    0  0.30542547746E+02  0.13440733742E+02  0.49914729215E+02  0.60225166990E+02  0.47000000000E+01 0. -1.
         -5    1    3    3    0  503 -0.83337885733E+02  0.49843773697E+01 -0.53605541961E+01  0.83790648389E+02  0.47000000000E+01 0. -1.
<mgrwt>
<rscale>  0 0.12895378E+03</rscale>
<asrwt>0</asrwt>
<pdfrwt beam="1">  1        2 0.10629299E-01 0.13695065E+03</pdfrwt>
<pdfrwt beam="2">  1       -2 0.37531348E-01 0.13695065E+03</pdfrwt>
<totfact> 0.38225085E+03</totfact>
</mgrwt>
</event>
<event>
 8    1  0.3551276E-004  0.1566950E+03  0.7546771E-02  0.1200492E+00
         -2   -1    0    0    0  501 -0.00000000000E+00  0.00000000000E+00  0.25515452001E+02  0.25515452001E+02  0.00000000000E+00 0.  1.
          2   -1    0    0  501    0  0.00000000000E+00 -0.00000000000E+00 -0.88287930838E+03  0.88287930838E+03  0.00000000000E+00 0. -1.
         25    2    1    2    0    0  0.85932038775E+02  0.39310534918E+02 -0.33672871391E+03  0.37140214505E+03  0.12499477242E+03 0.  0.
         23    2    1    2    0    0 -0.85932038775E+02 -0.39310534918E+02 -0.52063514247E+03  0.53699261533E+03  0.91490348677E+02 0.  0.
          5    1    4    4  502    0 -0.14528754693E+02 -0.46387523213E+02 -0.32323758542E+03  0.32690597065E+03  0.47000000000E+01 0. -1.
         -5    1    4    4    0  502 -0.71403284083E+02  0.70769882951E+01 -0.19739755705E+03  0.21008664468E+03  0.47000000000E+01 0.  1.
          5    1    3    3  503    0  0.62078623304E+02  0.43549123904E+01 -0.31938680183E+03  0.32542701166E+03  0.47000000000E+01 0.  1.
         -5    1    3    3    0  503  0.23853415471E+02  0.34955622527E+02 -0.17341912080E+02  0.45975133393E+02  0.47000000000E+01 0.  1.
<mgrwt>
<rscale>  0 0.14998489E+03</rscale>
<asrwt>0</asrwt>
<pdfrwt beam="1">  1        2 0.13582756E+00 0.15669501E+03</pdfrwt>
<pdfrwt beam="2">  1       -2 0.39254548E-02 0.15669501E+03</pdfrwt>
<totfact> 0.85679891E+03</totfact>
</mgrwt>
</event>
<event>
 8    1  0.3551276E-004  0.1291402E+03  0.7546771E-02  0.1244586E+00
          2   -1    0    0  501    0  0.00000000000E+00  0.00000000000E+00  0.27898907628E+03  0.27898907628E+03  0.00000000000E+00 0. -1.
         -2   -1    0    0    0  501 -0.00000000000E+00 -0.00000000000E+00 -0.45925652053E+02  0.45925652053E+02  0.00000000000E+00 0.  1.
         25    2    1    2    0    0  0.28007752449E+02  0.16388674239E+02  0.16393053007E+03  0.20868736210E+03  0.12499669425E+03 0.  0.
         23    2    1    2    0    0 -0.28007752449E+02 -0.16388674239E+02  0.69132894164E+02  0.11622736623E+03  0.87615185701E+02 0.  0.
          5    1    4    4  502    0 -0.21522195281E+02  0.33878341740E+02  0.18543281407E+02  0.44462233571E+02  0.47000000000E+01 0. -1.
         -5    1    4    4    0  502 -0.64855571675E+01 -0.50267015979E+02  0.50589612757E+02  0.71765132662E+02  0.47000000000E+01 0.  1.
          5    1    3    3  503    0  0.41873143637E+02 -0.47384094612E+02  0.73582741033E+02  0.97134558001E+02  0.47000000000E+01 0.  1.
         -5    1    3    3    0  503 -0.13865391189E+02  0.63772768851E+02  0.90347789033E+02  0.11155280410E+03  0.47000000000E+01 0.  1.
<mgrwt>
<rscale>  0 0.11910211E+03</rscale>
<asrwt>0</asrwt>
<pdfrwt beam="1">  1        2 0.42921395E-01 0.12914022E+03</pdfrwt>
<pdfrwt beam="2">  1       -2 0.70654851E-02 0.12914022E+03</pdfrwt>
<totfact> 0.12740893E+04</totfact>
</mgrwt>
</event>
<event>
 8    1  0.3551276E-004  0.1261472E+03  0.7546771E-02  0.1245025E+00
          2   -1    0    0  501    0  0.00000000000E+00  0.00000000000E+00  0.72340189715E+03  0.72340189715E+03  0.00000000000E+00 0. -1.
         -2   -1    0    0    0  501 -0.00000000000E+00 -0.00000000000E+00 -0.17632616759E+02  0.17632616759E+02  0.00000000000E+00 0.  1.
         25    2    1    2    0    0 -0.46403158100E+01 -0.16323680619E+02  0.41585262542E+03  0.43456475181E+03  0.12500048948E+03 0.  0.
         23    2    1    2    0    0  0.46403158100E+01  0.16323680619E+02  0.28991665497E+03  0.30646976209E+03  0.97898177553E+02 0.  0.
          5    1    3    3  502    0  0.50375514427E+02  0.24054282091E+02  0.22339051624E+03  0.23030786718E+03  0.47000000000E+01 0. -1.
         -5    1    3    3    0  502 -0.55015830237E+02 -0.40377962710E+02  0.19246210918E+03  0.20425688463E+03  0.47000000000E+01 0. -1.
          5    1    4    4  503    0  0.22242128622E+02  0.40304862777E+02  0.25976231735E+03  0.26385174959E+03  0.47000000000E+01 0. -1.
         -5    1    4    4    0  503 -0.17601812812E+02 -0.23981182158E+02  0.30154337621E+02  0.42618012499E+02  0.47000000000E+01 0.  1.
<mgrwt>
<rscale>  0 0.11883904E+03</rscale>
<asrwt>0</asrwt>
<pdfrwt beam="1">  1        2 0.11129258E+00 0.12614721E+03</pdfrwt>
<pdfrwt beam="2">  1       -2 0.27127108E-02 0.12614721E+03</pdfrwt>
<totfact> 0.18679248E+04</totfact>
</mgrwt>
</event>
<event>
 8    1  0.3551276E-004  0.1257876E+03  0.7546771E-02  0.1249758E+00
         -1   -1    0    0    0  501 -0.00000000000E+00  0.00000000000E+00  0.23944862943E+02  0.23944862943E+02  0.00000000000E+00 0.  1.
          1   -1    0    0  501    0  0.00000000000E+00 -0.00000000000E+00 -0.53086508026E+03  0.53086508026E+03  0.00000000000E+00 0. -1.
         25    2    1    2    0    0  0.13654680649E+02  0.32598861214E+01 -0.21608162835E+03  0.25002757883E+03  0.12500177160E+03 0.  0.
         23    2    1    2    0    0 -0.13654680649E+02 -0.32598861214E+01 -0.29083858896E+03  0.30478236437E+03  0.90045142231E+02 0.  0.
          5    1    4    4  502    0  0.17974137318E+02 -0.35833746045E+02 -0.18775723751E+03  0.19204686201E+03  0.47000000000E+01 0. -1.
         -5    1    3    3    0  503 -0.49304938434E+02 -0.18947045848E+02 -0.13405240190E+03  0.14415999430E+03  0.47000000000E+01 0. -1.
          5    1    3    3  503    0  0.62959619084E+02  0.22206931970E+02 -0.82029226446E+02  0.10586758453E+03  0.47000000000E+01 0. -1.
         -5    1    4    4    0  502 -0.31628817967E+02  0.32573859923E+02 -0.10308135145E+03  0.11273550237E+03  0.47000000000E+01 0.  1.
<mgrwt>
<rscale>  0 0.11605054E+03</rscale>
<asrwt>0</asrwt>
<pdfrwt beam="1">  1        1 0.81671554E-01 0.12578760E+03</pdfrwt>
<pdfrwt beam="2">  1       -1 0.36838249E-02 0.12578760E+03</pdfrwt>
<totfact> 0.10959539E+04</totfact>
</mgrwt>
</event>
<event>
 8    1  0.3551276E-004  0.1958713E+03  0.7546771E-02  0.1158117E+00
         -1   -1    0    0    0  501 -0.00000000000E+00  0.00000000000E+00  0.11911676847E+03  0.11911676847E+03  0.00000000000E+00 0.  1.
          1   -1    0    0  501    0  0.00000000000E+00 -0.00000000000E+00 -0.28954539902E+03  0.28954539902E+03  0.00000000000E+00 0. -1.
         25    2    1    2    0    0  0.14001968039E+03  0.55999403530E+02 -0.77201939713E+02  0.21053669812E+03  0.12499647063E+03 0.  0.
         23    2    1    2    0    0 -0.14001968039E+03 -0.55999403530E+02 -0.93226690835E+02  0.19812546937E+03  0.88436653246E+02 0.  0.
          5    1    4    4  502    0 -0.14570942978E+03 -0.35629136957E+02 -0.92810603524E+02  0.17645557927E+03  0.47000000000E+01 0. -1.
         -5    1    3    3    0  503  0.11035889441E+03  0.79690953745E+02 -0.97240655300E+02  0.16735461967E+03  0.47000000000E+01 0.  1.
          5    1    3    3  503    0  0.29660785983E+02 -0.23691550215E+02  0.20038715587E+02  0.43182078448E+02  0.47000000000E+01 0.  1.
         -5    1    4    4    0  502  0.56897493943E+01 -0.20370266573E+02 -0.41608731102E+00  0.21669890103E+02  0.47000000000E+01 0.  1.
<mgrwt>
<rscale>  0 0.19038234E+03</rscale>
<asrwt>0</asrwt>
<pdfrwt beam="1">  1        1 0.44545446E-01 0.19587129E+03</pdfrwt>
<pdfrwt beam="2">  1       -1 0.18325657E-01 0.19587129E+03</pdfrwt>
<totfact> 0.21079363E+03</totfact>
</mgrwt>
</event>
<event>
 8    1  0.3551276E-004  0.1405744E+03  0.7546771E-02  0.1223762E+00
         -2   -1    0    0    0  501 -0.00000000000E+00  0.00000000000E+00  0.26319426278E+03  0.26319426278E+03  0.00000000000E+00 0.  1.
          2   -1    0    0  501    0  0.00000000000E+00 -0.00000000000E+00 -0.61147792174E+02  0.61147792174E+02  0.00000000000E+00 0. -1.
         25    2    1    2    0    0  0.59247786308E+02 -0.25021055714E+02  0.91902257231E+02  0.16794992275E+03  0.12499919302E+03 0.  0.
         23    2    1    2    0    0 -0.59247786308E+02  0.25021055714E+02  0.11014421338E+03  0.15639213220E+03  0.90500816923E+02 0.  0.
          5    1    4    4  502    0  0.18581211740E+02  0.16986722511E+02  0.64583443487E+01  0.26412314990E+02  0.47000000000E+01 0. -1.
         -5    1    4    4    0  502 -0.77828998048E+02  0.80343332036E+01  0.10368586903E+03  0.12997981721E+03  0.47000000000E+01 0.  1.
          5    1    3    3  503    0  0.17204824128E+02  0.45030083954E+02  0.51758595784E+01  0.48709279984E+02  0.47000000000E+01 0.  1.
         -5    1    3    3    0  503  0.42042962179E+02 -0.70051139668E+02  0.86726397652E+02  0.11924064277E+03  0.47000000000E+01 0.  1.
<mgrwt>
<rscale>  0 0.13252130E+03</rscale>
<asrwt>0</asrwt>
<pdfrwt beam="1">  1        2 0.94073528E-02 0.14057436E+03</pdfrwt>
<pdfrwt beam="2">  1       -2 0.40491424E-01 0.14057436E+03</pdfrwt>
<totfact> 0.38552960E+03</totfact>
</mgrwt>
</event>
<event>
 8    1  0.3551276E-004  0.1270274E+03  0.7546771E-02  0.1248723E+00
          1   -1    0    0  501    0  0.00000000000E+00  0.00000000000E+00  0.57385088953E+03  0.57385088953E+03  0.00000000000E+00 0. -1.
         -1   -1    0    0    0  501 -0.00000000000E+00 -0.00000000000E+00 -0.21036681709E+02  0.21036681709E+02  0.00000000000E+00 0.  1.
         25    2    1    2    0    0 -0.22481695986E+02 -0.23350968757E+01  0.36505571839E+03  0.38652507968E+03  0.12500032142E+03 0.  0.
         23    2    1    2    0    0  0.22481695986E+02  0.23350968757E+01  0.18775848943E+03  0.20836249156E+03  0.87468841343E+02 0.  0.
          5    1    3    3  502    0  0.15787287469E+02 -0.34298448226E+02  0.30908694481E+03  0.31142005627E+03  0.47000000000E+01 0.  1.
         -5    1    3    3    0  502 -0.38268983454E+02  0.31963351351E+02  0.55968773582E+02  0.75105023404E+02  0.47000000000E+01 0.  1.
          5    1    4    4  503    0 -0.16676303401E+02 -0.16261034774E+02  0.14622768902E+03  0.14814569647E+03  0.47000000000E+01 0. -1.
         -5    1    4    4    0  503  0.39157999387E+02  0.18596131649E+02  0.41530800406E+02  0.60216795088E+02  0.47000000000E+01 0.  1.
<mgrwt>
<rscale>  0 0.11665288E+03</rscale>
<asrwt>0</asrwt>
<pdfrwt beam="1">  1        1 0.88284740E-01 0.12702740E+03</pdfrwt>
<pdfrwt beam="2">  1       -1 0.32364130E-02 0.12702740E+03</pdfrwt>
<totfact> 0.11946053E+04</totfact>
</mgrwt>
</event>
<event>
 8    1  0.3551276E-004  0.1485567E+03  0.7546771E-02  0.1211674E+00
          2   -1    0    0  501    0  0.00000000000E+00  0.00000000000E+00  0.44004556112E+03  0.44004556112E+03  0.00000000000E+00 0. -1.
         -2   -1    0    0    0  501 -0.00000000000E+00 -0.00000000000E+00 -0.53140101130E+02  0.53140101130E+02  0.00000000000E+00 0.  1.
         25    2    1    2    0    0 -0.23218095580E+02 -0.76849355396E+02  0.32410603879E+03  0.35653026356E+03  0.12499680423E+03 0.  0.
         23    2    1    2    0    0  0.23218095580E+02  0.76849355396E+02  0.62799421204E+02  0.13665539869E+03  0.91027618344E+02 0.  0.
          5    1    4    4  502    0  0.27181974797E+02  0.47791752226E+02  0.83759876332E+02  0.10030313164E+03  0.47000000000E+01 0. -1.
         -5    1    4    4    0  502 -0.39638792174E+01  0.29057603170E+02 -0.20960455127E+02  0.36352267049E+02  0.47000000000E+01 0.  1.
          5    1    3    3  503    0  0.17014837428E+02 -0.94667344042E+02  0.26983928879E+03  0.28650784020E+03  0.47000000000E+01 0. -1.
         -5    1    3    3    0  503 -0.40232933008E+02  0.17817988646E+02  0.54266750001E+02  0.70022423362E+02  0.47000000000E+01 0. -1.
<mgrwt>
<rscale>  0 0.14123686E+03</rscale>
<asrwt>0</asrwt>
<pdfrwt beam="1">  1        2 0.67699315E-01 0.14855674E+03</pdfrwt>
<pdfrwt beam="2">  1       -2 0.81754004E-02 0.14855674E+03</pdfrwt>
<totfact> 0.63250850E+03</totfact>
</mgrwt>
</event>
<event>
 8    1  0.3551276E-004  0.1804929E+03  0.7546771E-02  0.1172584E+00
         -1   -1    0    0    0  501 -0.00000000000E+00  0.00000000000E+00  0.94812700787E+02  0.94812700787E+02  0.00000000000E+00 0.  1.
          1   -1    0    0  501    0  0.00000000000E+00 -0.00000000000E+00 -0.30873733581E+03  0.30873733581E+03  0.00000000000E+00 0. -1.
         25    2    1    2    0    0  0.10545088839E+03 -0.76375612057E+02 -0.93575757955E+02  0.20330795225E+03  0.12499830795E+03 0.  0.
         23    2    1    2    0    0 -0.10545088839E+03  0.76375612057E+02 -0.12034887707E+03  0.20024208434E+03  0.93058670479E+02 0.  0.
          5    1    3    3  502    0  0.12837879380E+03 -0.49138002025E+02 -0.48872990961E+02  0.14596683591E+03  0.47000000000E+01 0.  1.
         -5    1    4    4    0  503  0.16347513578E+02  0.13306665983E+02 -0.85429166220E+01  0.23224555629E+02  0.47000000000E+01 0.  1.
          5    1    4    4  503    0 -0.12179840197E+03  0.63068946074E+02 -0.11180596044E+03  0.17701752872E+03  0.47000000000E+01 0. -1.
         -5    1    3    3    0  502 -0.22927905403E+02 -0.27237610032E+02 -0.44702766994E+02  0.57341116342E+02  0.47000000000E+01 0.  1.
<mgrwt>
<rscale>  0 0.17514704E+03</rscale>
<asrwt>0</asrwt>
<pdfrwt beam="1">  1        1 0.47498051E-01 0.18049294E+03</pdfrwt>
<pdfrwt beam="2">  1       -1 0.14586570E-01 0.18049294E+03</pdfrwt>
<totfact> 0.27889782E+03</totfact>
</mgrwt>
</event>
<event>
 8    1  0.3551276E-004  0.1289023E+03  0.7546771E-02  0.1244927E+00
         -1   -1    0    0    0  501 -0.00000000000E+00  0.00000000000E+00  0.53037127756E+02  0.53037127756E+02  0.00000000000E+00 0.  1.
          1   -1    0    0  501    0  0.00000000000E+00 -0.00000000000E+00 -0.48788896246E+03  0.48788896246E+03  0.00000000000E+00 0. -1.
         25    2    1    2    0    0  0.18550930193E+02 -0.25435243761E+02 -0.42842693904E+03  0.44739852328E+03  0.12499883160E+03 0.  0.
         23    2    1    2    0    0 -0.18550930193E+02  0.25435243761E+02 -0.64248956696E+01  0.93527566941E+02  0.87835288223E+02 0.  0.
          5    1    3    3  502    0  0.67640131781E+02 -0.26478341580E+02 -0.32159144139E+03  0.32972630343E+03  0.47000000000E+01 0. -1.
         -5    1    4    4    0  503 -0.82910694649E+01 -0.32356866902E+02  0.31203389386E+01  0.33875288688E+02  0.47000000000E+01 0.  1.
          5    1    4    4  503    0 -0.10259860728E+02  0.57792110663E+02 -0.95452346082E+01  0.59652278253E+02  0.47000000000E+01 0. -1.
         -5    1    3    3    0  502 -0.49089201588E+02  0.10430978189E+01 -0.10683549765E+03  0.11767221984E+03  0.47000000000E+01 0. -1.
<mgrwt>
<rscale>  0 0.11889773E+03</rscale>
<asrwt>0</asrwt>
<pdfrwt beam="1">  1        1 0.75059844E-01 0.12890228E+03</pdfrwt>
<pdfrwt beam="2">  1       -1 0.81595577E-02 0.12890228E+03</pdfrwt>
<totfact> 0.37686809E+03</totfact>
</mgrwt>
</event>
<event>
 8    1  0.3551276E-004  0.1268273E+03  0.7546771E-02  0.1247282E+00
          2   -1    0    0  501    0  0.00000000000E+00  0.00000000000E+00  0.43789141323E+03  0.43789141323E+03  0.00000000000E+00 0. -1.
         -2   -1    0    0    0  501 -0.00000000000E+00 -0.00000000000E+00 -0.27717650325E+02  0.27717650325E+02  0.00000000000E+00 0.  1.
         25    2    1    2    0    0 -0.66394083852E+01 -0.20416374577E+02  0.22988956404E+03  0.26255355669E+03  0.12499699349E+03 0.  0.
         23    2    1    2    0    0  0.66394083852E+01  0.20416374577E+02  0.18028419887E+03  0.20305550686E+03  0.90929843357E+02 0.  0.
          5    1    3    3  502    0 -0.48120026485E+02  0.92962068089E+00  0.29266633341E+02  0.56524569619E+02  0.47000000000E+01 0. -1.
         -5    1    3    3    0  502  0.41480618100E+02 -0.21345995258E+02  0.20062293070E+03  0.20602898707E+03  0.47000000000E+01 0. -1.
          5    1    4    4  503    0 -0.40249700141E+02 -0.14559907064E+01  0.93416056610E+02  0.10183716366E+03  0.47000000000E+01 0. -1.
         -5    1    4    4    0  503  0.46889108527E+02  0.21872365283E+02  0.86868142255E+02  0.10121834320E+03  0.47000000000E+01 0.  1.
<mgrwt>
<rscale>  0 0.11749814E+03</rscale>
<asrwt>0</asrwt>
<pdfrwt beam="1">  1        2 0.67367905E-01 0.12682728E+03</pdfrwt>
<pdfrwt beam="2">  1       -2 0.42642542E-02 0.12682728E+03</pdfrwt>
<totfact> 0.16870835E+04</totfact>
</mgrwt>
</event>
<event>
 8    1  0.3551276E-004  0.1327281E+03  0.7546771E-02  0.1234565E+00
          1   -1    0    0  501    0  0.00000000000E+00  0.00000000000E+00  0.25543640456E+03  0.25543640456E+03  0.00000000000E+00 0. -1.
         -1   -1    0    0    0  501 -0.00000000000E+00 -0.00000000000E+00 -0.58260796134E+02  0.58260796134E+02  0.00000000000E+00 0.  1.
         25    2    1    2    0    0  0.19517794792E+02 -0.40163635829E+02  0.14299677134E+03  0.19510209818E+03  0.12499076024E+03 0.  0.
         23    2    1    2    0    0 -0.19517794792E+02  0.40163635829E+02  0.54178837088E+02  0.11859510252E+03  0.95579234125E+02 0.  0.
          5    1    3    3  502    0  0.80067095533E+01  0.44508760111E+02  0.35411190878E+02  0.57629676069E+02  0.47000000000E+01 0. -1.
         -5    1    4    4    0  503  0.27593215513E+02 -0.87172498488E+01 -0.33216500292E+01  0.29504225904E+02  0.47000000000E+01 0.  1.
          5    1    4    4  503    0 -0.47111010305E+02  0.48880885678E+02  0.57500487117E+02  0.89090876611E+02  0.47000000000E+01 0. -1.
         -5    1    3    3    0  502  0.11511085239E+02 -0.84672395940E+02  0.10758558046E+03  0.13747242211E+03  0.47000000000E+01 0. -1.
<mgrwt>
<rscale>  0 0.12532318E+03</rscale>
<asrwt>0</asrwt>
<pdfrwt beam="1">  1        1 0.39297908E-01 0.13272811E+03</pdfrwt>
<pdfrwt beam="2">  1       -1 0.89631996E-02 0.13272811E+03</pdfrwt>
<totfact> 0.73651664E+03</totfact>
</mgrwt>
</event>
<event>
 8    1  0.3551276E-004  0.1250964E+03  0.7546771E-02  0.1250920E+00
         -1   -1    0    0    0  501 -0.00000000000E+00  0.00000000000E+00  0.89461270868E+02  0.89461270868E+02  0.00000000000E+00 0.  1.
          1   -1    0    0  501    0  0.00000000000E+00 -0.00000000000E+00 -0.13542475343E+03  0.13542475343E+03  0.00000000000E+00 0. -1.
         25    2    1    2    0    0  0.48363039601E+01  0.10287153694E+00 -0.48889947654E+02  0.13431055475E+03  0.12500279084E+03 0.  0.
         23    2    1    2    0    0 -0.48363039601E+01 -0.10287153694E+00  0.29264650956E+01  0.90575469546E+02  0.90398844390E+02 0.  0.
          5    1    4    4  502    0 -0.32311534227E+02  0.33525607308E+02 -0.23035015340E-02  0.46798414447E+02  0.47000000000E+01 0. -1.
         -5    1    3    3    0  503  0.45100236681E+02 -0.12154385135E+02  0.21913763582E+02  0.51807947856E+02  0.47000000000E+01 0. -1.
          5    1    3    3  503    0 -0.40263932721E+02  0.12257256672E+02 -0.70803711236E+02  0.82502606893E+02  0.47000000000E+01 0. -1.
         -5    1    4    4    0  502  0.27475230266E+02 -0.33628478845E+02  0.29287685972E+01  0.43777055099E+02  0.47000000000E+01 0.  1.
<mgrwt>
<rscale>  0 0.11537971E+03</rscale>
<asrwt>0</asrwt>
<pdfrwt beam="1">  1        1 0.20834578E-01 0.12509636E+03</pdfrwt>
<pdfrwt beam="2">  1       -1 0.13763272E-01 0.12509636E+03</pdfrwt>
<totfact> 0.83762747E+03</totfact>
</mgrwt>
</event>
<event>
 8    1  0.3551276E-004  0.1418516E+03  0.7546771E-02  0.1221723E+00
         -1   -1    0    0    0  501 -0.00000000000E+00  0.00000000000E+00  0.31395941984E+02  0.31395941984E+02  0.00000000000E+00 0.  1.
          1   -1    0    0  501    0  0.00000000000E+00 -0.00000000000E+00 -0.85261732118E+03  0.85261732118E+03  0.00000000000E+00 0. -1.
         25    2    1    2    0    0 -0.53122173204E+02 -0.40912175582E+02 -0.71556616370E+03  0.72949079422E+03  0.12500445125E+03 0.  0.
         23    2    1    2    0    0  0.53122173204E+02  0.40912175582E+02 -0.10565521550E+03  0.15452246894E+03  0.90655377384E+02 0.  0.
          5    1    3    3  502    0  0.80234491225E+01 -0.56312730874E+02 -0.15154823865E+03  0.16193967405E+03  0.47000000000E+01 0.  1.
         -5    1    3    3    0  502 -0.61145622327E+02  0.15400555293E+02 -0.56401792505E+03  0.56755112017E+03  0.47000000000E+01 0.  1.
          5    1    4    4  503    0  0.44749080154E+02 -0.19073949983E+02 -0.65411880321E+02  0.81652310621E+02  0.47000000000E+01 0. -1.
         -5    1    4    4    0  503  0.83730930500E+01  0.59986125564E+02 -0.40243335183E+02  0.72870158323E+02  0.47000000000E+01 0.  1.
<mgrwt>
<rscale>  0 0.13394045E+03</rscale>
<asrwt>0</asrwt>
<pdfrwt beam="1">  1        1 0.13117192E+00 0.14185163E+03</pdfrwt>
<pdfrwt beam="2">  1       -1 0.48301441E-02 0.14185163E+03</pdfrwt>
<totfact> 0.37841388E+03</totfact>
</mgrwt>
</event>
<event>
 8    1  0.3551276E-004  0.1386553E+03  0.7546771E-02  0.1227265E+00
          2   -1    0    0  501    0  0.00000000000E+00  0.00000000000E+00  0.23790688833E+03  0.23790688833E+03  0.00000000000E+00 0. -1.
         -2   -1    0    0    0  501 -0.00000000000E+00 -0.00000000000E+00 -0.72702195274E+02  0.72702195274E+02  0.00000000000E+00 0.  1.
         25    2    1    2    0    0  0.41022111149E+02  0.43776109404E+02  0.14598461407E+03  0.20133755408E+03  0.12500456704E+03 0.  0.
         23    2    1    2    0    0 -0.41022111149E+02 -0.43776109404E+02  0.19220078991E+02  0.10927152953E+03  0.89284345609E+02 0.  0.
          5    1    3    3  502    0  0.11996089649E+02  0.52493614935E+02  0.15906332043E+03  0.16799617758E+03  0.47000000000E+01 0.  1.
         -5    1    3    3    0  502  0.29026021501E+02 -0.87175055310E+01 -0.13078706360E+02  0.33341376500E+02  0.47000000000E+01 0.  1.
          5    1    4    4  503    0  0.29600505019E+01 -0.33018205374E+02  0.45665810290E+02  0.56625259510E+02  0.47000000000E+01 0. -1.
         -5    1    4    4    0  503 -0.43982161651E+02 -0.10757904030E+02 -0.26445731300E+02  0.52646270016E+02  0.47000000000E+01 0.  1.
<mgrwt>
<rscale>  0 0.13012871E+03</rscale>
<asrwt>0</asrwt>
<pdfrwt beam="1">  1        2 0.36601059E-01 0.13865534E+03</pdfrwt>
<pdfrwt beam="2">  1       -2 0.11184953E-01 0.13865534E+03</pdfrwt>
<totfact> 0.74221295E+03</totfact>
</mgrwt>
</event>
<event>
 8    1  0.3551276E-004  0.1709720E+03  0.7546771E-02  0.1183341E+00
          3   -1    0    0  501    0  0.00000000000E+00  0.00000000000E+00  0.74539480358E+02  0.74539480358E+02  0.00000000000E+00 0. -1.
         -3   -1    0    0    0  501 -0.00000000000E+00 -0.00000000000E+00 -0.35980590382E+03  0.35980590382E+03  0.00000000000E+00 0.  1.
         25    2    1    2    0    0 -0.11598214400E+03 -0.12436582878E+02 -0.20247411211E+03  0.26500411436E+03  0.12499955293E+03 0.  0.
         23    2    1    2    0    0  0.11598214400E+03  0.12436582878E+02 -0.82792311352E+02  0.16934126982E+03  0.90638692195E+02 0.  0.
          5    1    4    4  502    0  0.99265620234E+02  0.45738384543E+02 -0.68957295241E+02  0.12931690434E+03  0.47000000000E+01 0. -1.
         -5    1    3    3    0  503 -0.81559751805E+02 -0.54911835764E+02 -0.67647805495E+02  0.11943876427E+03  0.47000000000E+01 0. -1.
          5    1    3    3  503    0 -0.34422392199E+02  0.42475252886E+02 -0.13482630662E+03  0.14556535010E+03  0.47000000000E+01 0. -1.
         -5    1    4    4    0  502  0.16716523770E+02 -0.33301801665E+02 -0.13835016112E+02  0.40024365478E+02  0.47000000000E+01 0.  1.
<mgrwt>
<rscale>  0 0.16483721E+03</rscale>
<asrwt>0</asrwt>
<pdfrwt beam="1">  1        3 0.11467612E-01 0.17097197E+03</pdfrwt>
<pdfrwt beam="2">  1       -3 0.55354755E-01 0.17097197E+03</pdfrwt>
<totfact> 0.45646520E+02</totfact>
</mgrwt>
</event>
