<event>
 7    1  0.8419046E-005  0.1431714E+03  0.7546771E-02  0.1227336E+00
          1   -1    0    0  501    0  0.00000000000E+00  0.00000000000E+00  0.52412065969E+03  0.52412065969E+03  0.00000000000E+00 0. -1.
         -1   -1    0    0    0  501 -0.00000000000E+00 -0.00000000000E+00 -0.30637639490E+02  0.30637639490E+02  0.00000000000E+00 0.  1.
         23    2    1    2    0    0  0.90212891933E+00 -0.36432722794E+02  0.11925435849E+03  0.15407744814E+03  0.90499176132E+02 0.  0.
          5    1    3    3  502    0  0.30972913476E+02  0.13118729764E+02  0.70255188128E+02  0.78033991944E+02  0.47000000000E+01 0. -1.
         -5    1    3    3    0  502 -0.30070784556E+02 -0.49551452558E+02  0.48999170359E+02  0.76043456197E+02  0.47000000000E+01 0.  1.
          5    1    1    2  503    0  0.44897475046E+02  0.72003259938E+02  0.22404204450E+03  0.23961882316E+03  0.47000000000E+01 0. -1.
         -5    1    1    2    0  503 -0.45799603966E+02 -0.35570537143E+02  0.15018661721E+03  0.16106202788E+03  0.47000000000E+01 0.  1.
<mgrwt>
<rscale>  0 0.13008042E+03</rscale>
<asrwt>0</asrwt>
<pdfrwt beam="1">  1        1 0.80633941E-01 0.14317141E+03</pdfrwt>
<pdfrwt beam="2">  1       -1 0.47134834E-02 0.14317141E+03</pdfrwt>
<totfact> 0.78266930E+03</totfact>
</mgrwt>
</event>
<event>
 7    1  0.8419046E-005  0.3075083E+03  0.7546771E-02  0.1129070E+00
          2   -1    0    0  501    0  0.00000000000E+00  0.00000000000E+00  0.62677399024E+02  0.62677399024E+02  0.00000000000E+00 0. -1.
         -2   -1    0    0    0  501 -0.00000000000E+00 -0.00000000000E+00 -0.64578229928E+03  0.64578229928E+03  0.00000000000E+00 0.  1.
         23    2    1    2    0    0 -0.99222528780E+00  0.19538704213E+02 -0.17918432167E+03  0.20080511479E+03  0.88503827709E+02 0.  0.
          5    1    1    2  502    0  0.90035011258E+02  0.76063479065E+02 -0.46005724467E+02  0.12661189827E+03  0.47000000000E+01 0. -1.
         -5    1    3    3    0  503 -0.43119515260E+02  0.17999972309E+02 -0.77345151113E+02  0.90485656322E+02  0.47000000000E+01 0.  1.
          5    1    3    3  503    0  0.42127289972E+02  0.15387319037E+01 -0.10183917056E+03  0.11031945847E+03  0.47000000000E+01 0. -1.
         -5    1    1    2    0  502 -0.89042785970E+02 -0.95602183277E+02 -0.35791485412E+03  0.38104268525E+03  0.47000000000E+01 0.  1.
<mgrwt>
<rscale>  0 0.22658075E+03</rscale>
<asrwt>0</asrwt>
<pdfrwt beam="1">  1        2 0.96426765E-02 0.30750828E+03</pdfrwt>
<pdfrwt beam="2">  1       -2 0.99351126E-01 0.30750828E+03</pdfrwt>
<totfact> 0.58527499E+02</totfact>
</mgrwt>
</event>
<event>
 7    1  0.8419046E-005  0.5204231E+03  0.7546771E-02  0.1008582E+00
         -2   -1    0    0    0  501 -0.00000000000E+00  0.00000000000E+00  0.60260050823E+03  0.60260050823E+03  0.00000000000E+00 0.  1.
          2   -1    0    0  501    0  0.00000000000E+00 -0.00000000000E+00 -0.11236306613E+03  0.11236306613E+03  0.00000000000E+00 0. -1.
         23    2    1    2    0    0  0.97569486506E+01  0.14706967256E+02  0.56008905334E+02  0.10828571432E+03  0.90979698372E+02 0.  0.
          5    1    3    3  502    0  0.48207070500E+02  0.22040443409E+02  0.30661245045E+02  0.61415834599E+02  0.47000000000E+01 0. -1.
         -5    1    1    2    0  503 -0.35664649240E+02 -0.16913864829E+03  0.41406868698E+03  0.44872577047E+03  0.47000000000E+01 0.  1.
          5    1    1    2  503    0  0.25907700589E+02  0.15443168103E+03  0.20159849793E+02  0.15795208957E+03  0.47000000000E+01 0. -1.
         -5    1    3    3    0  502 -0.38450121849E+02 -0.73334761527E+01  0.25347660290E+02  0.46869879719E+02  0.47000000000E+01 0.  1.
<mgrwt>
<rscale>  0 0.52042306E+03</rscale>
<asrwt>0</asrwt>
<pdfrwt beam="1">  1        2 0.17286626E-01 0.52042306E+03</pdfrwt>
<pdfrwt beam="2">  1       -2 0.92707768E-01 0.52042306E+03</pdfrwt>
<totfact> 0.33711491E+02</totfact>
</mgrwt>
</event>
<event>
 7    1  0.8419046E-005  0.1076273E+03  0.7546771E-02  0.1279983E+00
          1   -1    0    0  501    0  0.00000000000E+00  0.00000000000E+00  0.23004397298E+03  0.23004397298E+03  0.00000000000E+00 0. -1.
         -1   -1    0    0    0  501 -0.00000000000E+00 -0.00000000000E+00 -0.38569647246E+02  0.38569647246E+02  0.00000000000E+00 0.  1.
         23    2    1    2    0    0 -0.22074194876E+02  0.54523015835E+02  0.11310577571E+03  0.15612993959E+03  0.90131083440E+02 0.  0.
          5    1    3    3  502    0  0.16510152166E+01  0.38483631276E+02  0.12015419844E+03  0.12626494814E+03  0.47000000000E+01 0. -1.
         -5    1    3    3    0  502 -0.23725210093E+02  0.16039384559E+02 -0.70484227302E+01  0.29864991444E+02  0.47000000000E+01 0.  1.
          5    1    1    2  503    0  0.26877676009E+02 -0.20648010677E+02  0.68492501199E+02  0.76564107342E+02  0.47000000000E+01 0. -1.
         -5    1    1    2    0  503 -0.48034811326E+01 -0.33875005158E+02  0.98760488284E+01  0.35919573298E+02  0.47000000000E+01 0.  1.
<mgrwt>
<rscale>  0 0.10014919E+03</rscale>
<asrwt>0</asrwt>
<pdfrwt beam="1">  1        1 0.35391380E-01 0.10762733E+03</pdfrwt>
<pdfrwt beam="2">  1       -1 0.59337920E-02 0.10762733E+03</pdfrwt>
<totfact> 0.15273834E+04</totfact>
</mgrwt>
</event>
<event>
 7    1  0.8419046E-005  0.4292375E+03  0.7546771E-02  0.1085893E+00
          1   -1    0    0  501    0  0.00000000000E+00  0.00000000000E+00  0.11576314733E+03  0.11576314733E+03  0.00000000000E+00 0. -1.
         -1   -1    0    0    0  501 -0.00000000000E+00 -0.00000000000E+00 -0.67951308203E+03  0.67951308203E+03  0.00000000000E+00 0.  1.
         23    2    1    2    0    0  0.41659896381E+02  0.15073394067E+02 -0.20173896455E+02  0.10265822515E+03  0.90382359547E+02 0.  0.
          5    1    1    2  502    0  0.14376071429E+03  0.12342238714E+03 -0.17859411571E+03  0.26041923275E+03  0.47000000000E+01 0. -1.
         -5    1    3    3    0  503 -0.76509802572E+01  0.33592840504E+02 -0.33326668796E+02  0.48164024801E+02  0.47000000000E+01 0.  1.
          5    1    3    3  503    0  0.49310876638E+02 -0.18519446437E+02  0.13152772342E+02  0.54494200347E+02  0.47000000000E+01 0. -1.
         -5    1    1    2    0  502 -0.18542061067E+03 -0.13849578121E+03 -0.36498192253E+03  0.43219877146E+03  0.47000000000E+01 0.  1.
<mgrwt>
<rscale>  0 0.29869891E+03</rscale>
<asrwt>0</asrwt>
<pdfrwt beam="1">  1        1 0.17809715E-01 0.42923745E+03</pdfrwt>
<pdfrwt beam="2">  1       -1 0.10454047E+00 0.42923745E+03</pdfrwt>
<totfact> 0.26967039E+02</totfact>
</mgrwt>
</event>
<event>
 7    1  0.8419046E-005  0.2668570E+03  0.7546771E-02  0.1142774E+00
         -2   -1    0    0    0  501 -0.00000000000E+00  0.00000000000E+00  0.90795315465E+02  0.90795315465E+02  0.00000000000E+00 0.  1.
          2   -1    0    0  501    0  0.00000000000E+00 -0.00000000000E+00 -0.51493291079E+03  0.51493291079E+03  0.00000000000E+00 0. -1.
         23    2    1    2    0    0  0.21037109081E+02 -0.33481819639E+02  0.59383117622E+01  0.99587978947E+02  0.91208057754E+02 0.  0.
          5    1    1    2  502    0 -0.36728856622E+02 -0.34181139042E+02 -0.43351861705E+03  0.43643767081E+03  0.47000000000E+01 0. -1.
         -5    1    3    3    0  503  0.38699231095E+02  0.15586695212E+02 -0.12930435311E+02  0.43930191353E+02  0.47000000000E+01 0.  1.
          5    1    3    3  503    0 -0.17662122014E+02 -0.49068514852E+02  0.18868747073E+02  0.55657787594E+02  0.47000000000E+01 0. -1.
         -5    1    1    2    0  502  0.15691747541E+02  0.67662958682E+02  0.34427099608E+01  0.69702576497E+02  0.47000000000E+01 0.  1.
<mgrwt>
<rscale>  0 0.20848141E+03</rscale>
<asrwt>0</asrwt>
<pdfrwt beam="1">  1        2 0.79220450E-01 0.26685701E+03</pdfrwt>
<pdfrwt beam="2">  1       -2 0.13968510E-01 0.26685701E+03</pdfrwt>
<totfact> 0.23134772E+03</totfact>
</mgrwt>
</event>
<event>
 7    1  0.8419046E-005  0.7850568E+03  0.7546771E-02  0.1010332E+00
          2   -1    0    0  501    0  0.00000000000E+00  0.00000000000E+00  0.71933999519E+03  0.71933999519E+03  0.00000000000E+00 0. -1.
         -2   -1    0    0    0  501 -0.00000000000E+00 -0.00000000000E+00 -0.35421330954E+03  0.35421330954E+03  0.00000000000E+00 0.  1.
         23    2    1    2    0    0  0.10954579303E+03  0.10993239248E+02  0.23842046348E+03  0.27833722158E+03  0.92228842743E+02 0.  0.
          5    1    3    3  502    0  0.12651577612E+01 -0.27076437921E+02  0.32852069688E+02  0.42849534390E+02  0.47000000000E+01 0. -1.
         -5    1    1    2    0  503 -0.33191788346E+02  0.36577536193E+03 -0.52505787863E+02  0.37104212425E+03  0.47000000000E+01 0.  1.
          5    1    1    2  503    0 -0.76354004687E+02 -0.37676860118E+03  0.17921201003E+03  0.42417395889E+03  0.47000000000E+01 0. -1.
         -5    1    3    3    0  502  0.10828063527E+03  0.38069677169E+02  0.20556839379E+03  0.23548768719E+03  0.47000000000E+01 0.  1.
<mgrwt>
<rscale>  0 0.51342981E+03</rscale>
<asrwt>0</asrwt>
<pdfrwt beam="1">  1        2 0.11066769E+00 0.78505678E+03</pdfrwt>
<pdfrwt beam="2">  1       -2 0.54494355E-01 0.78505678E+03</pdfrwt>
<totfact> 0.12658345E+02</totfact>
</mgrwt>
</event>
<event>
 7    1  0.8419046E-005  0.2971384E+03  0.7546771E-02  0.1125418E+00
         -2   -1    0    0    0  501 -0.00000000000E+00  0.00000000000E+00  0.30917175431E+03  0.30917175431E+03  0.00000000000E+00 0.  1.
          2   -1    0    0  501    0  0.00000000000E+00 -0.00000000000E+00 -0.16843172070E+03  0.16843172070E+03  0.00000000000E+00 0. -1.
         23    2    1    2    0    0  0.11375049245E+02  0.59202101330E+02 -0.53847749970E+02  0.12241951171E+03  0.91938436590E+02 0.  0.
          5    1    3    3  502    0 -0.25411246207E+02 -0.12154046073E+02 -0.21471171719E+02  0.35728888658E+02  0.47000000000E+01 0. -1.
         -5    1    3    3    0  502  0.36786295452E+02  0.71356147404E+02 -0.32376578252E+02  0.86690623049E+02  0.47000000000E+01 0.  1.
          5    1    1    2  503    0  0.22455471841E+02 -0.45860999649E+02 -0.70719563713E+02  0.87354600315E+02  0.47000000000E+01 0. -1.
         -5    1    1    2    0  503 -0.33830521086E+02 -0.13341101681E+02  0.26530734729E+03  0.26782936299E+03  0.47000000000E+01 0.  1.
<mgrwt>
<rscale>  0 0.23174412E+03</rscale>
<asrwt>0</asrwt>
<pdfrwt beam="1">  1        2 0.25912573E-01 0.29713842E+03</pdfrwt>
<pdfrwt beam="2">  1       -2 0.47564885E-01 0.29713842E+03</pdfrwt>
<totfact> 0.87884908E+02</totfact>
</mgrwt>
</event>
<event>
 7    1  0.8419046E-005  0.2735152E+03  0.7546771E-02  0.1140903E+00
          1   -1    0    0  501    0  0.00000000000E+00  0.00000000000E+00  0.28948125148E+03  0.28948125148E+03  0.00000000000E+00 0. -1.
         -1   -1    0    0    0  501 -0.00000000000E+00 -0.00000000000E+00 -0.19543582145E+03  0.19543582145E+03  0.00000000000E+00 0.  1.
         23    2    1    2    0    0 -0.32280140192E+02  0.11771569528E+01  0.17482254869E+03  0.19972328507E+03  0.91011394445E+02 0.  0.
          5    1    1    2  502    0 -0.78717177791E+01 -0.13413804708E+03 -0.43448516811E+02  0.14129700361E+03  0.47000000000E+01 0. -1.
         -5    1    3    3    0  503  0.67678412180E+01  0.39577956497E+02  0.59029422207E+02  0.71545656761E+02  0.47000000000E+01 0.  1.
          5    1    3    3  503    0 -0.39047981410E+02 -0.38400799544E+02  0.11579312649E+03  0.12817762831E+03  0.47000000000E+01 0. -1.
         -5    1    1    2    0  502  0.40151857971E+02  0.13296089013E+03 -0.37328601854E+02  0.14389678425E+03  0.47000000000E+01 0.  1.
<mgrwt>
<rscale>  0 0.21083889E+03</rscale>
<asrwt>0</asrwt>
<pdfrwt beam="1">  1        1 0.44535577E-01 0.27351518E+03</pdfrwt>
<pdfrwt beam="2">  1       -1 0.30067049E-01 0.27351518E+03</pdfrwt>
<totfact> 0.93481749E+02</totfact>
</mgrwt>
</event>
<event>
 7    1  0.8419046E-005  0.2019249E+03  0.7546771E-02  0.1174631E+00
          4   -1    0    0  501    0  0.00000000000E+00  0.00000000000E+00  0.44069603665E+02  0.44069603665E+02  0.00000000000E+00 0. -1.
         -4   -1    0    0    0  501 -0.00000000000E+00 -0.00000000000E+00 -0.55094169951E+03  0.55094169951E+03  0.00000000000E+00 0.  1.
         23    2    1    2    0    0 -0.43746759161E+02 -0.37067609627E+02 -0.19587636431E+03  0.22421216633E+03  0.92821111903E+02 0.  0.
          5    1    1    2  502    0  0.47831217477E+02 -0.69190714720E+02 -0.19997813872E+03  0.21699890860E+03  0.47000000000E+01 0. -1.
         -5    1    3    3    0  503 -0.38279296419E+02  0.17057366094E+02 -0.36606900810E+02  0.55842756552E+02  0.47000000000E+01 0.  1.
          5    1    3    3  503    0 -0.54674627413E+01 -0.54124975721E+02 -0.15926946350E+03  0.16836940978E+03  0.47000000000E+01 0. -1.
         -5    1    1    2    0  502 -0.40844583167E+01  0.10625832435E+03 -0.11101759282E+03  0.15380022824E+03  0.47000000000E+01 0.  1.
<mgrwt>
<rscale>  0 0.17312186E+03</rscale>
<asrwt>0</asrwt>
<pdfrwt beam="1">  1        4 0.67799389E-02 0.20192487E+03</pdfrwt>
<pdfrwt beam="2">  1       -4 0.84760263E-01 0.20192487E+03</pdfrwt>
<totfact> 0.32335362E+02</totfact>
</mgrwt>
</event>
<event>
 7    1  0.8419046E-005  0.3312070E+03  0.7546771E-02  0.1070604E+00
         -2   -1    0    0    0  501 -0.00000000000E+00  0.00000000000E+00  0.59892504841E+02  0.59892504841E+02  0.00000000000E+00 0.  1.
          2   -1    0    0  501    0  0.00000000000E+00 -0.00000000000E+00 -0.45789563508E+03  0.45789563508E+03  0.00000000000E+00 0. -1.
         23    2    1    2    0    0 -0.31593213132E+02 -0.74886127436E+01 -0.13931427495E+03  0.16960309209E+03  0.91118226526E+02 0.  0.
          5    1    3    3  502    0  0.29943007746E+02 -0.66086969311E+01 -0.25611422042E+02  0.40228019179E+02  0.47000000000E+01 0. -1.
         -5    1    1    2    0  503  0.92897309961E+02 -0.49484242300E+02 -0.37814784167E+02  0.11194037849E+03  0.47000000000E+01 0.  1.
          5    1    1    2  503    0 -0.61304096829E+02  0.56972855044E+02 -0.22087407113E+03  0.23624466935E+03  0.47000000000E+01 0. -1.
         -5    1    3    3    0  502 -0.61536220878E+02 -0.87991581246E+00 -0.11370285291E+03  0.12937507291E+03  0.47000000000E+01 0.  1.
<mgrwt>
<rscale>  0 0.33120698E+03</rscale>
<asrwt>0</asrwt>
<pdfrwt beam="1">  1        2 0.70445482E-01 0.33120698E+03</pdfrwt>
<pdfrwt beam="2">  1       -2 0.92142316E-02 0.33120698E+03</pdfrwt>
<totfact> 0.52072238E+03</totfact>
</mgrwt>
</event>
<event>
 7    1  0.8419046E-005  0.5478076E+03  0.7546771E-02  0.1037360E+00
         -2   -1    0    0    0  501 -0.00000000000E+00  0.00000000000E+00  0.53857164514E+03  0.53857164514E+03  0.00000000000E+00 0.  1.
          2   -1    0    0  501    0  0.00000000000E+00 -0.00000000000E+00 -0.77610426416E+03  0.77610426416E+03  0.00000000000E+00 0. -1.
         23    2    1    2    0    0 -0.11454698208E+03 -0.11476566465E+03 -0.61920434323E+03  0.64701843290E+03  0.94481029620E+02 0.  0.
          5    1    3    3  502    0 -0.98477819206E+02 -0.74212851125E+02 -0.29369818435E+03  0.31856889622E+03  0.47000000000E+01 0. -1.
         -5    1    3    3    0  502 -0.16069162870E+02 -0.40552813525E+02 -0.32550615888E+03  0.32844953668E+03  0.47000000000E+01 0.  1.
          5    1    1    2  503    0 -0.10527522550E+03 -0.13868944743E+02 -0.84927123817E+02  0.13605119291E+03  0.47000000000E+01 0. -1.
         -5    1    1    2    0  503  0.21982220758E+03  0.12863460939E+03  0.46659884802E+03  0.53160628349E+03  0.47000000000E+01 0.  1.
<mgrwt>
<rscale>  0 0.41910026E+03</rscale>
<asrwt>0</asrwt>
<pdfrwt beam="1">  1        2 0.11940066E+00 0.54780763E+03</pdfrwt>
<pdfrwt beam="2">  1       -2 0.82857177E-01 0.54780763E+03</pdfrwt>
<totfact> 0.47284994E+01</totfact>
</mgrwt>
</event>
<event>
 7    1  0.8419046E-005  0.1038108E+03  0.7546771E-02  0.1274353E+00
         -2   -1    0    0    0  501 -0.00000000000E+00  0.00000000000E+00  0.47518024972E+03  0.47518024972E+03  0.00000000000E+00 0.  1.
          2   -1    0    0  501    0  0.00000000000E+00 -0.00000000000E+00 -0.23581478825E+02  0.23581478825E+02  0.00000000000E+00 0. -1.
         23    2    1    2    0    0 -0.30501790728E+02  0.24831534300E+02  0.15513233970E+03  0.18464548107E+03  0.92092054629E+02 0.  0.
          5    1    1    2  502    0  0.54749915970E+02 -0.29742303054E+02  0.11471427531E+03  0.13062776446E+03  0.47000000000E+01 0. -1.
         -5    1    3    3    0  503 -0.50591017824E+02 -0.13914565209E+02  0.10844087393E+03  0.12055944322E+03  0.47000000000E+01 0.  1.
          5    1    3    3  503    0  0.20089227096E+02  0.38746099509E+02  0.46691465772E+02  0.64086037859E+02  0.47000000000E+01 0. -1.
         -5    1    1    2    0  502 -0.24248125242E+02  0.49107687544E+01  0.18175215588E+03  0.18348848300E+03  0.47000000000E+01 0.  1.
<mgrwt>
<rscale>  0 0.10288050E+03</rscale>
<asrwt>0</asrwt>
<pdfrwt beam="1">  1        2 0.36279202E-02 0.10381075E+03</pdfrwt>
<pdfrwt beam="2">  1       -2 0.73104647E-01 0.10381075E+03</pdfrwt>
<totfact> 0.39031379E+03</totfact>
</mgrwt>
</event>
<event>
 7    1  0.8419046E-005  0.1065946E+03  0.7546771E-02  0.1280033E+00
          1   -1    0    0  501    0  0.00000000000E+00  0.00000000000E+00  0.40617627084E+03  0.40617627084E+03  0.00000000000E+00 0. -1.
         -1   -1    0    0    0  501 -0.00000000000E+00 -0.00000000000E+00 -0.22984726439E+02  0.22984726439E+02  0.00000000000E+00 0.  1.
         23    2    1    2    0    0  0.15516520005E+02 -0.57131460249E+02  0.25588479030E+03  0.27719926453E+03  0.88643331410E+02 0.  0.
          5    1    3    3  502    0 -0.16226045528E+02 -0.51797029448E+02  0.71104847280E+02  0.89577933219E+02  0.47000000000E+01 0. -1.
         -5    1    1    2    0  503 -0.12018432022E+02  0.20571687653E+02  0.10702299053E+03  0.10974355354E+03  0.47000000000E+01 0.  1.
          5    1    1    2  503    0 -0.34980879834E+01  0.36559772595E+02  0.20283763571E+02  0.42218179217E+02  0.47000000000E+01 0. -1.
         -5    1    3    3    0  502  0.31742565533E+02 -0.53344308003E+01  0.18477994302E+03  0.18762133131E+03  0.47000000000E+01 0.  1.
<mgrwt>
<rscale>  0 0.10012492E+03</rscale>
<asrwt>0</asrwt>
<pdfrwt beam="1">  1        1 0.62488652E-01 0.10659459E+03</pdfrwt>
<pdfrwt beam="2">  1       -1 0.35361121E-02 0.10659459E+03</pdfrwt>
<totfact> 0.16169133E+04</totfact>
</mgrwt>
</event>
<event>
 7    1  0.8419046E-005  0.1272029E+03  0.7546771E-02  0.1237955E+00
          1   -1    0    0  501    0  0.00000000000E+00  0.00000000000E+00  0.33805287461E+03  0.33805287461E+03  0.00000000000E+00 0. -1.
         -1   -1    0    0    0  501 -0.00000000000E+00 -0.00000000000E+00 -0.94584987113E+02  0.94584987113E+02  0.00000000000E+00 0.  1.
         23    2    1    2    0    0 -0.89897105168E+02  0.48273696720E+01 -0.35522907510E+02  0.13206988624E+03  0.89865370844E+02 0.  0.
          5    1    1    2  502    0  0.40013818396E+02 -0.23620264185E+02  0.19844331487E+03  0.20386481246E+03  0.47000000000E+01 0. -1.
         -5    1    3    3    0  503 -0.51765418498E+02  0.46929503411E+02 -0.23033024301E+02  0.73720058676E+02  0.47000000000E+01 0.  1.
          5    1    3    3  503    0 -0.38131686670E+02 -0.42102133739E+02 -0.12489883209E+02  0.58349827560E+02  0.47000000000E+01 0. -1.
         -5    1    1    2    0  502  0.49883286772E+02  0.18792894513E+02  0.80547480145E+02  0.96703163035E+02  0.47000000000E+01 0.  1.
<mgrwt>
<rscale>  0 0.12317123E+03</rscale>
<asrwt>0</asrwt>
<pdfrwt beam="1">  1        1 0.52008134E-01 0.12720290E+03</pdfrwt>
<pdfrwt beam="2">  1       -1 0.14551537E-01 0.12720290E+03</pdfrwt>
<totfact> 0.24672430E+03</totfact>
</mgrwt>
</event>
<event>
 7    1  0.8419046E-005  0.2918787E+03  0.7546771E-02  0.1089372E+00
          2   -1    0    0  501    0  0.00000000000E+00  0.00000000000E+00  0.38636520329E+03  0.38636520329E+03  0.00000000000E+00 0. -1.
         -2   -1    0    0    0  501 -0.00000000000E+00 -0.00000000000E+00 -0.55124791202E+02  0.55124791202E+02  0.00000000000E+00 0.  1.
         23    2    1    2    0    0  0.31742833288E+02  0.71918393158E+02  0.16313287787E+03  0.20387609538E+03  0.93665701773E+02 0.  0.
          5    1    3    3  502    0  0.41369588108E+02  0.90950501716E+02  0.13999728471E+03  0.17206035659E+03  0.47000000000E+01 0. -1.
         -5    1    3    3    0  502 -0.96267548202E+01 -0.19032108558E+02  0.23135593154E+02  0.31815738796E+02  0.47000000000E+01 0.  1.
          5    1    1    2  503    0 -0.29862904624E+02  0.42712021620E+02  0.64116850372E+02  0.82759714627E+02  0.47000000000E+01 0. -1.
         -5    1    1    2    0  503 -0.18799286632E+01 -0.11463041478E+03  0.10399068386E+03  0.15485418449E+03  0.47000000000E+01 0.  1.
<mgrwt>
<rscale>  0 0.29187875E+03</rscale>
<asrwt>0</asrwt>
<pdfrwt beam="1">  1        2 0.59440799E-01 0.29187875E+03</pdfrwt>
<pdfrwt beam="2">  1       -2 0.84807374E-02 0.29187875E+03</pdfrwt>
<totfact> 0.71266677E+03</totfact>
</mgrwt>
</event>
<event>
 7    1  0.8419046E-005  0.1076187E+03  0.7546771E-02  0.1267171E+00
         -2   -1    0    0    0  501 -0.00000000000E+00  0.00000000000E+00  0.24734386330E+02  0.24734386330E+02  0.00000000000E+00 0.  1.
          2   -1    0    0  501    0  0.00000000000E+00 -0.00000000000E+00 -0.51065810415E+03  0.51065810415E+03  0.00000000000E+00 0. -1.
         23    2    1    2    0    0  0.28649069966E+02 -0.46661317981E+02 -0.34004509989E+03  0.35666855488E+03  0.92648476946E+02 0.  0.
          5    1    1    2  502    0 -0.52472364602E+02  0.36831375335E+01 -0.62460747590E+02  0.81794556900E+02  0.47000000000E+01 0. -1.
         -5    1    3    3    0  503  0.27590607296E+02  0.85359718810E+00 -0.23542297732E+02  0.36582783132E+02  0.47000000000E+01 0.  1.
          5    1    3    3  503    0  0.10584626702E+01 -0.47514915170E+02 -0.31650280215E+03  0.32008577175E+03  0.47000000000E+01 0. -1.
         -5    1    1    2    0  502  0.23823294636E+02  0.42978180448E+02 -0.83417870345E+02  0.96929378698E+02  0.47000000000E+01 0.  1.
<mgrwt>
<rscale>  0 0.10651089E+03</rscale>
<asrwt>0</asrwt>
<pdfrwt beam="1">  1        2 0.78562781E-01 0.10761872E+03</pdfrwt>
<pdfrwt beam="2">  1       -2 0.38052904E-02 0.10761872E+03</pdfrwt>
<totfact> 0.16666926E+04</totfact>
</mgrwt>
</event>
<event>
 7    1  0.8419046E-005  0.4093113E+03  0.7546771E-02  0.1085177E+00
          2   -1    0    0  501    0  0.00000000000E+00  0.00000000000E+00  0.76290150478E+03  0.76290150478E+03  0.00000000000E+00 0. -1.
         -2   -1    0    0    0  501 -0.00000000000E+00 -0.00000000000E+00 -0.11415886975E+03  0.11415886975E+03  0.00000000000E+00 0.  1.
         23    2    1    2    0    0  0.62200789517E+02 -0.44528177619E+02  0.10418218138E+02  0.11877691939E+03  0.90264724516E+02 0.  0.
          5    1    3    3  502    0  0.71424007644E+02 -0.16897373550E+02  0.33981115431E+02  0.81016765591E+02  0.47000000000E+01 0. -1.
         -5    1    3    3    0  502 -0.92232181267E+01 -0.27630804069E+02 -0.23562897293E+02  0.37760153799E+02  0.47000000000E+01 0.  1.
          5    1    1    2  503    0 -0.55548082511E+02 -0.48174455923E+02  0.65887488247E+03  0.66298157472E+03  0.47000000000E+01 0. -1.
         -5    1    1    2    0  503 -0.66527070066E+01  0.92702633543E+02 -0.20550465575E+02  0.95301880420E+02  0.47000000000E+01 0.  1.
<mgrwt>
<rscale>  0 0.30012629E+03</rscale>
<asrwt>0</asrwt>
<pdfrwt beam="1">  1        2 0.11736946E+00 0.40931130E+03</pdfrwt>
<pdfrwt beam="2">  1       -2 0.17562904E-01 0.40931130E+03</pdfrwt>
<totfact> 0.98928299E+02</totfact>
</mgrwt>
</event>
<event>
 7    1  0.8419046E-005  0.1360340E+03  0.7546771E-02  0.1235816E+00
         -1   -1    0    0    0  501 -0.00000000000E+00  0.00000000000E+00  0.34430742109E+02  0.34430742109E+02  0.00000000000E+00 0.  1.
          1   -1    0    0  501    0  0.00000000000E+00 -0.00000000000E+00 -0.38944105861E+03  0.38944105861E+03  0.00000000000E+00 0. -1.
         23    2    1    2    0    0  0.13905878737E+02  0.32348423024E+02 -0.14231960082E+03  0.17139887862E+03  0.88785769576E+02 0.  0.
          5    1    1    2  502    0 -0.38391179951E+02  0.37312332540E+02 -0.48537623142E+02  0.72416045997E+02  0.47000000000E+01 0. -1.
         -5    1    3    3    0  503  0.20479721618E+02  0.55092564592E+02 -0.13307322925E+03  0.14555131059E+03  0.47000000000E+01 0.  1.
          5    1    3    3  503    0 -0.65738428807E+01 -0.22744141567E+02 -0.92463715642E+01  0.25847568028E+02  0.47000000000E+01 0. -1.
         -5    1    1    2    0  502  0.24485301213E+02 -0.69660755565E+02 -0.16415309255E+03  0.18005687611E+03  0.47000000000E+01 0.  1.
<mgrwt>
<rscale>  0 0.12452339E+03</rscale>
<asrwt>0</asrwt>
<pdfrwt beam="1">  1        1 0.59914009E-01 0.13603395E+03</pdfrwt>
<pdfrwt beam="2">  1       -1 0.52970373E-02 0.13603395E+03</pdfrwt>
<totfact> 0.96102110E+03</totfact>
</mgrwt>
</event>
<event>
 7    1  0.8419046E-005  0.1193850E+03  0.7546771E-02  0.1247061E+00
          1   -1    0    0  501    0  0.00000000000E+00  0.00000000000E+00  0.11166154809E+03  0.11166154809E+03  0.00000000000E+00 0. -1.
         -1   -1    0    0    0  501 -0.00000000000E+00 -0.00000000000E+00 -0.12945535716E+03  0.12945535716E+03  0.00000000000E+00 0.  1.
         23    2    1    2    0    0 -0.64681196064E+02 -0.18294974723E+02  0.23217551381E+02  0.11488419123E+03  0.90227265717E+02 0.  0.
          5    1    3    3  502    0 -0.45462663989E+02  0.24793288346E+02  0.38907742040E+02  0.64941999928E+02  0.47000000000E+01 0. -1.
         -5    1    1    2    0  503  0.50398038311E+02  0.54246155225E+02 -0.45455757050E+02  0.87011053730E+02  0.47000000000E+01 0.  1.
          5    1    1    2  503    0  0.14283157753E+02 -0.35951180502E+02  0.44443966035E+01  0.39221660292E+02  0.47000000000E+01 0. -1.
         -5    1    3    3    0  502 -0.19218532074E+02 -0.43088263069E+02 -0.15690190660E+02  0.49942191305E+02  0.47000000000E+01 0.  1.
<mgrwt>
<rscale>  0 0.11762875E+03</rscale>
<asrwt>0</asrwt>
<pdfrwt beam="1">  1        1 0.17178700E-01 0.11938495E+03</pdfrwt>
<pdfrwt beam="2">  1       -1 0.19916209E-01 0.11938495E+03</pdfrwt>
<totfact> 0.59600453E+03</totfact>
</mgrwt>
</event>
<event>
 7    1  0.8419046E-005  0.1023364E+03  0.7546771E-02  0.1284284E+00
         -2   -1    0    0    0  501 -0.00000000000E+00  0.00000000000E+00  0.14523929269E+03  0.14523929269E+03  0.00000000000E+00 0.  1.
          2   -1    0    0  501    0  0.00000000000E+00 -0.00000000000E+00 -0.78456303211E+02  0.78456303211E+02  0.00000000000E+00 0. -1.
         23    2    1    2    0    0 -0.12228326960E+02  0.25675386811E+01  0.83229283960E+02  0.12004610791E+03  0.85602745758E+02 0.  0.
          5    1    3    3  502    0  0.89273408467E+01 -0.38615211570E+02  0.36170850512E+02  0.53863275114E+02  0.47000000000E+01 0. -1.
         -5    1    1    2    0  503 -0.42358562531E+02 -0.11009317091E+02  0.48077759133E+01  0.44279313361E+02  0.47000000000E+01 0.  1.
          5    1    1    2  503    0  0.54586889491E+02  0.84417784097E+01 -0.21254070394E+02  0.59370174628E+02  0.47000000000E+01 0. -1.
         -5    1    3    3    0  502 -0.21155667807E+02  0.41182750251E+02  0.47058433448E+02  0.66182832798E+02  0.47000000000E+01 0.  1.
<mgrwt>
<rscale>  0 0.98127096E+02</rscale>
<asrwt>0</asrwt>
<pdfrwt beam="1">  1        2 0.12070201E-01 0.10233639E+03</pdfrwt>
<pdfrwt beam="2">  1       -2 0.22344507E-01 0.10233639E+03</pdfrwt>
<totfact> 0.80929806E+03</totfact>
</mgrwt>
</event>
<event>
 7    1  0.8419046E-005  0.3936379E+03  0.7546771E-02  0.1046005E+00
         -2   -1    0    0    0  501 -0.00000000000E+00  0.00000000000E+00  0.42935887825E+02  0.42935887825E+02  0.00000000000E+00 0.  1.
          2   -1    0    0  501    0  0.00000000000E+00 -0.00000000000E+00 -0.90222208778E+03  0.90222208778E+03  0.00000000000E+00 0. -1.
         23    2    1    2    0    0 -0.13472140675E+02 -0.71067158131E+02 -0.11563378855E+03  0.16461529636E+03  0.92168233149E+02 0.  0.
          5    1    3    3  502    0  0.20961176186E+02 -0.67749063002E+02 -0.40586259785E+02  0.81845225445E+02  0.47000000000E+01 0. -1.
         -5    1    3    3    0  502 -0.34433316861E+02 -0.33180951287E+01 -0.75047528767E+02  0.82770070916E+02  0.47000000000E+01 0.  1.
          5    1    1    2  503    0  0.31831488316E+02  0.90528540486E+02 -0.74701762989E+03  0.75317069092E+03  0.47000000000E+01 0. -1.
         -5    1    1    2    0  503 -0.18359347641E+02 -0.19461382355E+02  0.33652184948E+01  0.27371988318E+02  0.47000000000E+01 0.  1.
<mgrwt>
<rscale>  0 0.39363794E+03</rscale>
<asrwt>0</asrwt>
<pdfrwt beam="1">  1        2 0.13880340E+00 0.39363794E+03</pdfrwt>
<pdfrwt beam="2">  1       -2 0.66055212E-02 0.39363794E+03</pdfrwt>
<totfact> 0.38799985E+03</totfact>
</mgrwt>
</event>
<event>
 7    1  0.8419046E-005  0.6172036E+03  0.7546771E-02  0.1042083E+00
         -2   -1    0    0    0  501 -0.00000000000E+00  0.00000000000E+00  0.82274414569E+02  0.82274414569E+02  0.00000000000E+00 0.  1.
          2   -1    0    0  501    0  0.00000000000E+00 -0.00000000000E+00 -0.17397520109E+04  0.17397520109E+04  0.00000000000E+00 0. -1.
         23    2    1    2    0    0  0.16341885983E+02  0.64151890996E+02 -0.47018233861E+03  0.48388954225E+03  0.93247708812E+02 0.  0.
          5    1    3    3  502    0  0.52222799244E+02  0.34221151743E+02 -0.33451042224E+03  0.34031987978E+03  0.47000000000E+01 0. -1.
         -5    1    3    3    0  502 -0.35880913261E+02  0.29930739253E+02 -0.13567191637E+03  0.14356966247E+03  0.47000000000E+01 0.  1.
          5    1    1    2  503    0  0.24523377286E+03  0.13348568129E+03 -0.42761186743E+03  0.51071717185E+03  0.47000000000E+01 0. -1.
         -5    1    1    2    0  503 -0.26157565884E+03 -0.19763757229E+03 -0.75968339030E+03  0.82741971138E+03  0.47000000000E+01 0.  1.
<mgrwt>
<rscale>  0 0.40493712E+03</rscale>
<asrwt>0</asrwt>
<pdfrwt beam="1">  1        2 0.26765415E+00 0.61720360E+03</pdfrwt>
<pdfrwt beam="2">  1       -2 0.12657602E-01 0.61720360E+03</pdfrwt>
<totfact> 0.44580069E+02</totfact>
</mgrwt>
</event>
<event>
 7    1  0.8419046E-005  0.1991743E+03  0.7546771E-02  0.1174073E+00
          2   -1    0    0  501    0  0.00000000000E+00  0.00000000000E+00  0.18288528158E+04  0.18288528158E+04  0.00000000000E+00 0. -1.
         -2   -1    0    0    0  501 -0.00000000000E+00 -0.00000000000E+00 -0.14097261494E+02  0.14097261494E+02  0.00000000000E+00 0.  1.
         23    2    1    2    0    0 -0.59691681897E+02  0.36573425357E+02  0.85735302990E+03  0.86504926521E+03  0.91407335735E+02 0.  0.
          5    1    1    2  502    0  0.55716789908E+02  0.52531115305E+02  0.72298339142E+03  0.72704260743E+03  0.47000000000E+01 0. -1.
         -5    1    1    2    0  502  0.39748919887E+01 -0.89104540662E+02  0.23441913300E+03  0.25085820467E+03  0.47000000000E+01 0.  1.
          5    1    3    3  503    0 -0.70834430229E+01  0.57637860322E+02  0.42813856968E+03  0.43208450904E+03  0.47000000000E+01 0. -1.
         -5    1    3    3    0  503 -0.52608238874E+02 -0.21064434965E+02  0.42921446023E+03  0.43296475617E+03  0.47000000000E+01 0.  1.
<mgrwt>
<rscale>  0 0.17367072E+03</rscale>
<asrwt>0</asrwt>
<pdfrwt beam="1">  1        2 0.28136178E+00 0.19917431E+03</pdfrwt>
<pdfrwt beam="2">  1       -2 0.21688109E-02 0.19917431E+03</pdfrwt>
<totfact> 0.62379545E+03</totfact>
</mgrwt>
</event>
<event>
 7    1  0.8419046E-005  0.4930351E+03  0.7546771E-02  0.1060405E+00
         -2   -1    0    0    0  501 -0.00000000000E+00  0.00000000000E+00  0.39630953277E+03  0.39630953277E+03  0.00000000000E+00 0.  1.
          2   -1    0    0  501    0  0.00000000000E+00 -0.00000000000E+00 -0.25612581614E+03  0.25612581614E+03  0.00000000000E+00 0. -1.
         23    2    1    2    0    0  0.90188753617E+02 -0.36048645879E+02  0.80969577195E+02  0.15585715924E+03  0.91114573515E+02 0.  0.
          5    1    1    2  502    0  0.41903388290E+01 -0.20646484012E+03 -0.52834120416E+02  0.21321074885E+03  0.47000000000E+01 0. -1.
         -5    1    1    2    0  502 -0.94379092447E+02  0.24251348599E+03  0.11204825985E+03  0.28336744082E+03  0.47000000000E+01 0.  1.
          5    1    3    3  503    0  0.50844470579E+00 -0.40093301737E+02  0.40795346361E+02  0.57394090680E+02  0.47000000000E+01 0. -1.
         -5    1    3    3    0  503  0.89680308912E+02  0.40446558584E+01  0.40174230834E+02  0.98463068562E+02  0.47000000000E+01 0.  1.
<mgrwt>
<rscale>  0 0.35543765E+03</rscale>
<asrwt>0</asrwt>
<pdfrwt beam="1">  1        2 0.39403972E-01 0.49303507E+03</pdfrwt>
<pdfrwt beam="2">  1       -2 0.60970697E-01 0.49303507E+03</pdfrwt>
<totfact> 0.33219881E+02</totfact>
</mgrwt>
</event>
<event>
 7    1  0.8419046E-005  0.3693185E+03  0.7546771E-02  0.1099529E+00
          2   -1    0    0  501    0  0.00000000000E+00  0.00000000000E+00  0.42092359928E+03  0.42092359928E+03  0.00000000000E+00 0. -1.
         -2   -1    0    0    0  501 -0.00000000000E+00 -0.00000000000E+00 -0.13804004593E+03  0.13804004593E+03  0.00000000000E+00 0.  1.
         23    2    1    2    0    0  0.21211331030E+02 -0.58812024305E+02  0.89245545707E+02  0.14196026241E+03  0.90989965972E+02 0.  0.
          5    1    3    3  502    0  0.10356365894E+02 -0.79996919066E+02  0.85092453303E+02  0.11734384084E+03  0.47000000000E+01 0. -1.
         -5    1    1    2    0  503 -0.36943750763E+02  0.87330918874E+01 -0.10603905560E+03  0.11272745418E+03  0.47000000000E+01 0.  1.
          5    1    1    2  503    0  0.15732419733E+02  0.50078932417E+02  0.29967706325E+03  0.30427592862E+03  0.47000000000E+01 0. -1.
         -5    1    3    3    0  502  0.10854965137E+02  0.21184894761E+02  0.41530924033E+01  0.24616421565E+02  0.47000000000E+01 0.  1.
<mgrwt>
<rscale>  0 0.27308139E+03</rscale>
<asrwt>0</asrwt>
<pdfrwt beam="1">  1        2 0.64757476E-01 0.36931848E+03</pdfrwt>
<pdfrwt beam="2">  1       -2 0.21236930E-01 0.36931848E+03</pdfrwt>
<totfact> 0.14345231E+03</totfact>
</mgrwt>
</event>
<event>
 7    1  0.8419046E-005  0.2083123E+03  0.7546771E-02  0.1177363E+00
         -2   -1    0    0    0  501 -0.00000000000E+00  0.00000000000E+00  0.21611692259E+02  0.21611692259E+02  0.00000000000E+00 0.  1.
          2   -1    0    0  501    0  0.00000000000E+00 -0.00000000000E+00 -0.10938111344E+04  0.10938111344E+04  0.00000000000E+00 0. -1.
         23    2    1    2    0    0 -0.16326434131E+02  0.88079477515E+01 -0.23975784107E+03  0.25731267866E+03  0.91552497764E+02 0.  0.
          5    1    3    3  502    0 -0.23223833933E+02  0.46656293838E+02 -0.10862524361E+03  0.12057234246E+03  0.47000000000E+01 0. -1.
         -5    1    3    3    0  502  0.68973998017E+01 -0.37848346087E+02 -0.13113259747E+03  0.13674033620E+03  0.47000000000E+01 0.  1.
          5    1    1    2  503    0  0.26311188520E+02  0.79957615062E+02 -0.64424402944E+03  0.64973683774E+03  0.47000000000E+01 0. -1.
         -5    1    1    2    0  503 -0.99847543891E+01 -0.88765562813E+02 -0.18819757161E+03  0.20837331025E+03  0.47000000000E+01 0.  1.
<mgrwt>
<rscale>  0 0.17046609E+03</rscale>
<asrwt>0</asrwt>
<pdfrwt beam="1">  1        2 0.16827857E+00 0.20831228E+03</pdfrwt>
<pdfrwt beam="2">  1       -2 0.33248769E-02 0.20831228E+03</pdfrwt>
<totfact> 0.82656105E+03</totfact>
</mgrwt>
</event>
<event>
 7    1  0.8419046E-005  0.2517827E+03  0.7546771E-02  0.1112183E+00
          2   -1    0    0  501    0  0.00000000000E+00  0.00000000000E+00  0.86335737430E+02  0.86335737430E+02  0.00000000000E+00 0. -1.
         -2   -1    0    0    0  501 -0.00000000000E+00 -0.00000000000E+00 -0.18356982692E+03  0.18356982692E+03  0.00000000000E+00 0.  1.
         23    2    1    2    0    0  0.13556741833E+02 -0.40991418134E+02 -0.57268223913E+02  0.11853644757E+03  0.94377742728E+02 0.  0.
          5    1    1    2  502    0  0.19834966215E+02  0.85375355728E+02 -0.10735674333E+02  0.88429191752E+02  0.47000000000E+01 0. -1.
         -5    1    1    2    0  502 -0.33391708048E+02 -0.44383937594E+02 -0.29230191247E+02  0.62939925032E+02  0.47000000000E+01 0.  1.
          5    1    3    3  503    0 -0.37742800908E+00  0.30155433465E+02 -0.22953126671E+02  0.38189378672E+02  0.47000000000E+01 0. -1.
         -5    1    3    3    0  503  0.13934169842E+02 -0.71146851599E+02 -0.34315097242E+02  0.80347068897E+02  0.47000000000E+01 0.  1.
<mgrwt>
<rscale>  0 0.25178273E+03</rscale>
<asrwt>0</asrwt>
<pdfrwt beam="1">  1        2 0.13282421E-01 0.25178273E+03</pdfrwt>
<pdfrwt beam="2">  1       -2 0.28241512E-01 0.25178273E+03</pdfrwt>
<totfact> 0.50943775E+03</totfact>
</mgrwt>
</event>
<event>
 7    1  0.8419046E-005  0.3802540E+03  0.7546771E-02  0.1094490E+00
         -1   -1    0    0    0  501 -0.00000000000E+00  0.00000000000E+00  0.98172621461E+03  0.98172621461E+03  0.00000000000E+00 0.  1.
          1   -1    0    0  501    0  0.00000000000E+00 -0.00000000000E+00 -0.15517077573E+03  0.15517077573E+03  0.00000000000E+00 0. -1.
         23    2    1    2    0    0 -0.58652401546E+02 -0.42322745435E+01 -0.88881589327E+02  0.14562606244E+03  0.99242111958E+02 0.  0.
          5    1    3    3  502    0 -0.76691927341E+02  0.50422636702E+01 -0.29089924476E+02  0.82312756291E+02  0.47000000000E+01 0. -1.
         -5    1    3    3    0  502  0.18039525795E+02 -0.92745382136E+01 -0.59791664851E+02  0.63313306150E+02  0.47000000000E+01 0.  1.
          5    1    1    2  503    0 -0.21463617157E+02 -0.17507399339E+03  0.53101784283E+03  0.55956557205E+03  0.47000000000E+01 0. -1.
         -5    1    1    2    0  503  0.80116018703E+02  0.17930626793E+03  0.38441918539E+03  0.43170535585E+03  0.47000000000E+01 0.  1.
<mgrwt>
<rscale>  0 0.28220546E+03</rscale>
<asrwt>0</asrwt>
<pdfrwt beam="1">  1        1 0.23872428E-01 0.38025399E+03</pdfrwt>
<pdfrwt beam="2">  1       -1 0.15103480E+00 0.38025399E+03</pdfrwt>
<totfact> 0.74712574E+01</totfact>
</mgrwt>
</event>
<event>
 7    1  0.8419046E-005  0.9472806E+02  0.7546771E-02  0.1307078E+00
          2   -1    0    0  501    0  0.00000000000E+00  0.00000000000E+00  0.88635402841E+03  0.88635402841E+03  0.00000000000E+00 0. -1.
         -2   -1    0    0    0  501 -0.00000000000E+00 -0.00000000000E+00 -0.78409327088E+01  0.78409327088E+01  0.00000000000E+00 0.  1.
         23    2    1    2    0    0 -0.21439005745E+02  0.87901907694E+00  0.53666505878E+03  0.54496127502E+03  0.92265932572E+02 0.  0.
          5    1    3    3  502    0 -0.50486065773E+01  0.45381500300E+02  0.22077113638E+03  0.22549269091E+03  0.47000000000E+01 0.  1.
         -5    1    3    3    0  502 -0.16390399168E+02 -0.44502481223E+02  0.31589392241E+03  0.31946858411E+03  0.47000000000E+01 0. -1.
          5    1    1    2  503    0  0.23501841191E+00 -0.32466271523E+02  0.14171458392E+03  0.14546211643E+03  0.47000000000E+01 0. -1.
         -5    1    1    2    0  503  0.21203987334E+02  0.31587252446E+02  0.20013345299E+03  0.20377156966E+03  0.47000000000E+01 0.  1.
<mgrwt>
<rscale>  0 0.88277241E+02</rscale>
<asrwt>0</asrwt>
<pdfrwt beam="1">  1        2 0.13636208E+00 0.94728063E+02</pdfrwt>
<pdfrwt beam="2">  1       -2 0.12062980E-02 0.94728063E+02</pdfrwt>
<totfact> 0.45470475E+04</totfact>
</mgrwt>
</event>
<event>
 7    1  0.8419046E-005  0.2498024E+03  0.7546771E-02  0.1113430E+00
          1   -1    0    0  501    0  0.00000000000E+00  0.00000000000E+00  0.12838967002E+03  0.12838967002E+03  0.00000000000E+00 0. -1.
         -1   -1    0    0    0  501 -0.00000000000E+00 -0.00000000000E+00 -0.12150756128E+03  0.12150756128E+03  0.00000000000E+00 0.  1.
         23    2    1    2    0    0 -0.39657972354E+02 -0.40617372783E+02  0.19369334389E+02  0.10715765309E+03  0.88797892761E+02 0.  0.
          5    1    1    2  502    0  0.37267967351E+02  0.87390865208E+02 -0.85759257110E+01  0.95507597677E+02  0.47000000000E+01 0. -1.
         -5    1    3    3    0  503  0.17128900433E+02 -0.37615415224E+02  0.26995864199E+02  0.49590174192E+02  0.47000000000E+01 0.  1.
          5    1    3    3  503    0 -0.56786872787E+02 -0.30019575590E+01 -0.76265298101E+01  0.57567478902E+02  0.47000000000E+01 0. -1.
         -5    1    1    2    0  502  0.23900050027E+01 -0.46773492425E+02 -0.39112999429E+01  0.47231980530E+02  0.47000000000E+01 0.  1.
<mgrwt>
<rscale>  0 0.24980245E+03</rscale>
<asrwt>0</asrwt>
<pdfrwt beam="1">  1        1 0.19752257E-01 0.24980245E+03</pdfrwt>
<pdfrwt beam="2">  1       -1 0.18693471E-01 0.24980245E+03</pdfrwt>
<totfact> 0.57711024E+03</totfact>
</mgrwt>
</event>
<event>
 7    1  0.8419046E-005  0.2004740E+03  0.7546771E-02  0.1176281E+00
          2   -1    0    0  501    0  0.00000000000E+00  0.00000000000E+00  0.25985715788E+03  0.25985715788E+03  0.00000000000E+00 0. -1.
         -2   -1    0    0    0  501 -0.00000000000E+00 -0.00000000000E+00 -0.12011299900E+03  0.12011299900E+03  0.00000000000E+00 0.  1.
         23    2    1    2    0    0 -0.53932353630E+02 -0.23003441194E+02  0.14377003927E+03  0.17945570630E+03  0.89981493981E+02 0.  0.
          5    1    3    3  502    0 -0.39659804006E+02  0.31363643887E+02  0.73766364686E+02  0.89555260988E+02  0.47000000000E+01 0. -1.
         -5    1    1    2    0  503  0.76133841644E+01 -0.65492115679E+02 -0.57063680532E+02  0.87324306298E+02  0.47000000000E+01 0.  1.
          5    1    1    2  503    0  0.46318969466E+02  0.88495556873E+02  0.53037800145E+02  0.11319014428E+03  0.47000000000E+01 0. -1.
         -5    1    3    3    0  502 -0.14272549624E+02 -0.54367085081E+02  0.70003674581E+02  0.89900445315E+02  0.47000000000E+01 0.  1.
<mgrwt>
<rscale>  0 0.17151163E+03</rscale>
<asrwt>0</asrwt>
<pdfrwt beam="1">  1        2 0.39978024E-01 0.20047403E+03</pdfrwt>
<pdfrwt beam="2">  1       -2 0.18478923E-01 0.20047403E+03</pdfrwt>
<totfact> 0.30300017E+03</totfact>
</mgrwt>
</event>
