<event>
 8    1  0.6836165E-004  0.1171257E+03  0.7546771E-02  0.1249442E+00
         -3   -1    0    0    0  501 -0.00000000000E+00  0.00000000000E+00  0.25638627417E+03  0.25638627417E+03  0.00000000000E+00 0.  1.
          3   -1    0    0  501    0  0.00000000000E+00 -0.00000000000E+00 -0.59330337096E+02  0.59330337096E+02  0.00000000000E+00 0. -1.
         23    2    1    2    0    0 -0.54887774693E+01 -0.66775859632E+02  0.15567222179E+03  0.19481343284E+03  0.96069198351E+02 0.  0.
         23    2    1    2    0    0  0.54887774693E+01  0.66775859632E+02  0.41383715287E+02  0.12090317842E+03  0.91737803300E+02 0.  0.
          5    1    4    4  502    0 -0.98813354980E+01  0.86038120300E+02  0.40701936189E+02  0.95806766700E+02  0.47000000000E+01 0. -1.
         -5    1    3    3    0  503  0.21664418064E+02 -0.74185761988E+02  0.14494299581E+03  0.16432722333E+03  0.47000000000E+01 0.  1.
          5    1    3    3  503    0 -0.27153195533E+02  0.74099023561E+01  0.10729225977E+02  0.30486209516E+02  0.47000000000E+01 0. -1.
         -5    1    4    4    0  502  0.15370112967E+02 -0.19262260668E+02  0.68177909792E+00  0.25096411724E+02  0.47000000000E+01 0.  1.
<mgrwt>
<rscale>  0 0.11623417E+03</rscale>
<asrwt>0</asrwt>
<pdfrwt beam="1">  1        3 0.91277443E-02 0.11712571E+03</pdfrwt>
<pdfrwt beam="2">  1       -3 0.39444042E-01 0.11712571E+03</pdfrwt>
<totfact> 0.12300926E+03</totfact>
</mgrwt>
</event>
<event>
 8    1  0.6836165E-004  0.9766976E+02  0.7546771E-02  0.1285293E+00
         -1   -1    0    0    0  501 -0.00000000000E+00  0.00000000000E+00  0.56838376788E+02  0.56838376788E+02  0.00000000000E+00 0.  1.
          1   -1    0    0  501    0  0.00000000000E+00 -0.00000000000E+00 -0.16877811406E+03  0.16877811406E+03  0.00000000000E+00 0. -1.
         23    2    1    2    0    0  0.19092395680E+02  0.27431931812E+02 -0.47268732417E+02  0.10850674707E+03  0.91773365636E+02 0.  0.
         23    2    1    2    0    0 -0.19092395680E+02 -0.27431931812E+02 -0.64671004855E+02  0.11710974378E+03  0.91735068335E+02 0.  0.
          5    1    3    3  502    0 -0.18071391693E+02  0.30894468212E+02 -0.58941833537E+02  0.69117820456E+02  0.47000000000E+01 0. -1.
         -5    1    3    3    0  502  0.37163787373E+02 -0.34625364004E+01  0.11673101120E+02  0.39388926616E+02  0.47000000000E+01 0.  1.
          5    1    4    4  503    0 -0.41291222585E+02  0.16820117511E+02 -0.45315614616E+02  0.63745402530E+02  0.47000000000E+01 0. -1.
         -5    1    4    4    0  503  0.22198826905E+02 -0.44252049323E+02 -0.19355390239E+02  0.53364341245E+02  0.47000000000E+01 0.  1.
<mgrwt>
<rscale>  0 0.97660758E+02</rscale>
<asrwt>0</asrwt>
<pdfrwt beam="1">  1        1 0.25965863E-01 0.97669755E+02</pdfrwt>
<pdfrwt beam="2">  1       -1 0.87443657E-02 0.97669755E+02</pdfrwt>
<totfact> 0.12439355E+04</totfact>
</mgrwt>
</event>
<event>
 8    1  0.6836165E-004  0.8727630E+02  0.7546771E-02  0.1311102E+00
         -3   -1    0    0    0  501 -0.00000000000E+00  0.00000000000E+00  0.25512816561E+03  0.25512816561E+03  0.00000000000E+00 0.  1.
          3   -1    0    0  501    0  0.00000000000E+00 -0.00000000000E+00 -0.96408630683E+02  0.96408630683E+02  0.00000000000E+00 0. -1.
         23    2    1    2    0    0  0.19028184765E+02  0.92440714418E+01  0.22660252865E+03  0.24282886603E+03  0.84673653013E+02 0.  0.
         23    2    1    2    0    0 -0.19028184765E+02 -0.92440714418E+01 -0.67882993731E+02  0.10870793026E+03  0.82230095406E+02 0.  0.
          5    1    4    4  502    0 -0.30318621812E+02 -0.38007050303E+02 -0.58213989643E+02  0.75991534341E+02  0.47000000000E+01 0. -1.
         -5    1    4    4    0  502  0.11290437047E+02  0.28762978861E+02 -0.96690040874E+01  0.32716395915E+02  0.47000000000E+01 0.  1.
          5    1    3    3  503    0 -0.22718428502E+02  0.16870830321E+02  0.29470968906E+02  0.41126389552E+02  0.47000000000E+01 0. -1.
         -5    1    3    3    0  503  0.41746613267E+02 -0.76267588793E+01  0.19713155975E+03  0.20170247648E+03  0.47000000000E+01 0.  1.
<mgrwt>
<rscale>  0 0.86678018E+02</rscale>
<asrwt>0</asrwt>
<pdfrwt beam="1">  1        3 0.14832097E-01 0.87276298E+02</pdfrwt>
<pdfrwt beam="2">  1       -3 0.39250487E-01 0.87276298E+02</pdfrwt>
<totfact> 0.52677020E+02</totfact>
</mgrwt>
</event>
<event>
 8    1  0.6836165E-004  0.9583781E+02  0.7546771E-02  0.1290437E+00
          2   -1    0    0  501    0  0.00000000000E+00  0.00000000000E+00  0.20973253660E+03  0.20973253660E+03  0.00000000000E+00 0. -1.
         -2   -1    0    0    0  501 -0.00000000000E+00 -0.00000000000E+00 -0.48585391175E+02  0.48585391175E+02  0.00000000000E+00 0.  1.
         23    2    1    2    0    0  0.21945877208E+02  0.20497061163E+02  0.12560633224E+03  0.15799315454E+03  0.91011730789E+02 0.  0.
         23    2    1    2    0    0 -0.21945877208E+02 -0.20497061163E+02  0.35540813186E+02  0.10032477323E+03  0.88882842436E+02 0.  0.
          5    1    3    3  502    0 -0.15390837826E+02 -0.25215557224E+02  0.72609365082E+02  0.78529689371E+02  0.47000000000E+01 0. -1.
         -5    1    4    4    0  503  0.84973930111E+01  0.24311766110E+02 -0.11339896196E+02  0.28529824835E+02  0.47000000000E+01 0.  1.
          5    1    4    4  503    0 -0.30443270220E+02 -0.44808827273E+02  0.46880709383E+02  0.71794948398E+02  0.47000000000E+01 0. -1.
         -5    1    3    3    0  502  0.37336715034E+02  0.45712618387E+02  0.52996967159E+02  0.79463465174E+02  0.47000000000E+01 0.  1.
<mgrwt>
<rscale>  0 0.95328945E+02</rscale>
<asrwt>0</asrwt>
<pdfrwt beam="1">  1        2 0.32266544E-01 0.95837812E+02</pdfrwt>
<pdfrwt beam="2">  1       -2 0.74746756E-02 0.95837812E+02</pdfrwt>
<totfact> 0.15401657E+04</totfact>
</mgrwt>
</event>
<event>
 8    1  0.6836165E-004  0.9481076E+02  0.7546771E-02  0.1291868E+00
         -1   -1    0    0    0  501 -0.00000000000E+00  0.00000000000E+00  0.49898253838E+02  0.49898253838E+02  0.00000000000E+00 0.  1.
          1   -1    0    0  501    0  0.00000000000E+00 -0.00000000000E+00 -0.27498152993E+03  0.27498152993E+03  0.00000000000E+00 0. -1.
         23    2    1    2    0    0  0.29833654974E+01 -0.24332435337E+02 -0.16519140609E+02  0.95777015429E+02  0.91100970351E+02 0.  0.
         23    2    1    2    0    0 -0.29833654974E+01  0.24332435337E+02 -0.20856413548E+03  0.22910276834E+03  0.91586636423E+02 0.  0.
          5    1    4    4  502    0 -0.36479201193E+02  0.40560449933E+02 -0.14864052779E+03  0.15840447822E+03  0.47000000000E+01 0. -1.
         -5    1    3    3    0  503 -0.15351831958E+02 -0.39437457194E+02  0.23773295873E+02  0.48767318678E+02  0.47000000000E+01 0.  1.
          5    1    3    3  503    0  0.18335197455E+02  0.15105021857E+02 -0.40292436482E+02  0.47009696751E+02  0.47000000000E+01 0. -1.
         -5    1    4    4    0  502  0.33495835695E+02 -0.16228014596E+02 -0.59923607688E+02  0.70698290114E+02  0.47000000000E+01 0.  1.
<mgrwt>
<rscale>  0 0.94693273E+02</rscale>
<asrwt>0</asrwt>
<pdfrwt beam="1">  1        1 0.42304851E-01 0.94810758E+02</pdfrwt>
<pdfrwt beam="2">  1       -1 0.76766544E-02 0.94810758E+02</pdfrwt>
<totfact> 0.82805349E+03</totfact>
</mgrwt>
</event>
<event>
 8    1  0.6836165E-004  0.9915346E+02  0.7546771E-02  0.1282645E+00
         -2   -1    0    0    0  501 -0.00000000000E+00  0.00000000000E+00  0.29482274865E+02  0.29482274865E+02  0.00000000000E+00 0.  1.
          2   -1    0    0  501    0  0.00000000000E+00 -0.00000000000E+00 -0.49941247971E+03  0.49941247971E+03  0.00000000000E+00 0. -1.
         23    2    1    2    0    0  0.36411395836E+02 -0.15226428256E+02 -0.80106390482E+02  0.12665848774E+03  0.89820403346E+02 0.  0.
         23    2    1    2    0    0 -0.36411395836E+02  0.15226428256E+02 -0.38982381436E+03  0.40223626683E+03  0.90960289393E+02 0.  0.
          5    1    4    4  502    0 -0.22217394698E+02  0.39631219488E+02 -0.35123217101E+03  0.35418974313E+03  0.47000000000E+01 0. -1.
         -5    1    3    3    0  503  0.44986151384E+02 -0.46002931070E+02 -0.62745297745E+02  0.89994921371E+02  0.47000000000E+01 0.  1.
          5    1    3    3  503    0 -0.85747555483E+01  0.30776502814E+02 -0.17361092736E+02  0.36663566373E+02  0.47000000000E+01 0. -1.
         -5    1    4    4    0  502 -0.14194001138E+02 -0.24404791232E+02 -0.38591643357E+02  0.48046523707E+02  0.47000000000E+01 0.  1.
<mgrwt>
<rscale>  0 0.98891257E+02</rscale>
<asrwt>0</asrwt>
<pdfrwt beam="1">  1        2 0.76832684E-01 0.99153457E+02</pdfrwt>
<pdfrwt beam="2">  1       -2 0.45357349E-02 0.99153457E+02</pdfrwt>
<totfact> 0.13078979E+04</totfact>
</mgrwt>
</event>
<event>
 8    1  0.6836165E-004  0.9690474E+02  0.7546771E-02  0.1290046E+00
          2   -1    0    0  501    0  0.00000000000E+00  0.00000000000E+00  0.75981847675E+02  0.75981847675E+02  0.00000000000E+00 0. -1.
         -2   -1    0    0    0  501 -0.00000000000E+00 -0.00000000000E+00 -0.11669905241E+03  0.11669905241E+03  0.00000000000E+00 0.  1.
         23    2    1    2    0    0 -0.14276194857E+01 -0.14869905951E+02 -0.20253325048E+02  0.98998616843E+02  0.95746419050E+02 0.  0.
         23    2    1    2    0    0  0.14276194857E+01  0.14869905951E+02 -0.20463879687E+02  0.93682283243E+02  0.90191172636E+02 0.  0.
          5    1    4    4  502    0 -0.60532097214E+01  0.33690479344E+02  0.25694240014E+02  0.43057795070E+02  0.47000000000E+01 0. -1.
         -5    1    3    3    0  503  0.35247625879E+02  0.17428479411E+02 -0.29060315548E+02  0.49119639295E+02  0.47000000000E+01 0.  1.
          5    1    3    3  503    0 -0.36675245365E+02 -0.32298385362E+02  0.88069904997E+01  0.49878977548E+02  0.47000000000E+01 0. -1.
         -5    1    4    4    0  502  0.74808292071E+01 -0.18820573393E+02 -0.46158119702E+02  0.50624488174E+02  0.47000000000E+01 0.  1.
<mgrwt>
<rscale>  0 0.95503430E+02</rscale>
<asrwt>0</asrwt>
<pdfrwt beam="1">  1        2 0.11689515E-01 0.96904742E+02</pdfrwt>
<pdfrwt beam="2">  1       -2 0.17953700E-01 0.96904742E+02</pdfrwt>
<totfact> 0.12082744E+04</totfact>
</mgrwt>
</event>
<event>
 8    1  0.6836165E-004  0.1218432E+03  0.7546771E-02  0.1242657E+00
         -1   -1    0    0    0  501 -0.00000000000E+00  0.00000000000E+00  0.16279808608E+02  0.16279808608E+02  0.00000000000E+00 0.  1.
          1   -1    0    0  501    0  0.00000000000E+00 -0.00000000000E+00 -0.10750851231E+04  0.10750851231E+04  0.00000000000E+00 0. -1.
         23    2    1    2    0    0  0.71752155102E+02  0.75943888400E+00 -0.30005348416E+03  0.32384851332E+03  0.98472421086E+02 0.  0.
         23    2    1    2    0    0 -0.71752155102E+02 -0.75943888400E+00 -0.75875183038E+03  0.76751641843E+03  0.90709227499E+02 0.  0.
          5    1    4    4  502    0 -0.86934458513E+02  0.18053403206E+02 -0.52560075639E+03  0.53306826070E+03  0.47000000000E+01 0. -1.
         -5    1    3    3    0  503  0.44272864119E+02 -0.13409187633E+02 -0.38318359368E+02  0.60251800595E+02  0.47000000000E+01 0.  1.
          5    1    3    3  503    0  0.27479290983E+02  0.14168626517E+02 -0.26173512479E+03  0.26359671272E+03  0.47000000000E+01 0. -1.
         -5    1    4    4    0  502  0.15182303412E+02 -0.18812842090E+02 -0.23315107398E+03  0.23444815773E+03  0.47000000000E+01 0.  1.
<mgrwt>
<rscale>  0 0.12026694E+03</rscale>
<asrwt>0</asrwt>
<pdfrwt beam="1">  1        1 0.16539768E+00 0.12184320E+03</pdfrwt>
<pdfrwt beam="2">  1       -1 0.25045865E-02 0.12184320E+03</pdfrwt>
<totfact> 0.67034148E+03</totfact>
</mgrwt>
</event>
<event>
 8    1  0.6836165E-004  0.9249033E+02  0.7546771E-02  0.1299723E+00
         -2   -1    0    0    0  501 -0.00000000000E+00  0.00000000000E+00  0.18645457071E+03  0.18645457071E+03  0.00000000000E+00 0.  1.
          2   -1    0    0  501    0  0.00000000000E+00 -0.00000000000E+00 -0.44715274068E+03  0.44715274068E+03  0.00000000000E+00 0. -1.
         23    2    1    2    0    0  0.37443801001E+01  0.19949936847E+02  0.17093140153E+03  0.19217946019E+03  0.85459818207E+02 0.  0.
         23    2    1    2    0    0 -0.37443801001E+01 -0.19949936847E+02 -0.43162957150E+03  0.44142785120E+03  0.90235472298E+02 0.  0.
          5    1    3    3  502    0  0.33160205092E+02 -0.89883323082E+01  0.32043330221E+02  0.47214979943E+02  0.47000000000E+01 0. -1.
         -5    1    4    4    0  503  0.52710130542E+01  0.31646429768E+02 -0.87723848901E+02  0.93524562345E+02  0.47000000000E+01 0.  1.
          5    1    4    4  503    0 -0.90153931543E+01 -0.51596366615E+02 -0.34390572260E+03  0.34790328886E+03  0.47000000000E+01 0. -1.
         -5    1    3    3    0  502 -0.29415824991E+02  0.28938269155E+02  0.13888807131E+03  0.14496448025E+03  0.47000000000E+01 0.  1.
<mgrwt>
<rscale>  0 0.91304473E+02</rscale>
<asrwt>0</asrwt>
<pdfrwt beam="1">  1        2 0.68792729E-01 0.92490328E+02</pdfrwt>
<pdfrwt beam="2">  1       -2 0.28685319E-01 0.92490328E+02</pdfrwt>
<totfact> 0.77874982E+02</totfact>
</mgrwt>
</event>
<event>
 8    1  0.6836165E-004  0.9587891E+02  0.7546771E-02  0.1289774E+00
         -1   -1    0    0    0  501 -0.00000000000E+00  0.00000000000E+00  0.22906305140E+02  0.22906305140E+02  0.00000000000E+00 0.  1.
          1   -1    0    0  501    0  0.00000000000E+00 -0.00000000000E+00 -0.43649559645E+03  0.43649559645E+03  0.00000000000E+00 0. -1.
         23    2    1    2    0    0 -0.20736341874E+02 -0.68422282917E+01 -0.13678986159E+03  0.16646728330E+03  0.92320518919E+02 0.  0.
         23    2    1    2    0    0  0.20736341874E+02  0.68422282917E+01 -0.27679942972E+03  0.29293461829E+03  0.93359275579E+02 0.  0.
          5    1    3    3  502    0 -0.12976055284E+02  0.26367692562E+02 -0.12733356859E+03  0.13076528940E+03  0.47000000000E+01 0. -1.
         -5    1    3    3    0  502 -0.77602865898E+01 -0.33209920854E+02 -0.94562929974E+01  0.35701993899E+02  0.47000000000E+01 0.  1.
          5    1    4    4  503    0  0.30574133059E+02  0.43522755955E+02 -0.20169815336E+03  0.20864621484E+03  0.47000000000E+01 0. -1.
         -5    1    4    4    0  503 -0.98377911851E+01 -0.36680527664E+02 -0.75101276354E+02  0.84288403444E+02  0.47000000000E+01 0.  1.
<mgrwt>
<rscale>  0 0.95625118E+02</rscale>
<asrwt>0</asrwt>
<pdfrwt beam="1">  1        1 0.67153161E-01 0.95878915E+02</pdfrwt>
<pdfrwt beam="2">  1       -1 0.35240473E-02 0.95878915E+02</pdfrwt>
<totfact> 0.14700708E+04</totfact>
</mgrwt>
</event>
<event>
 8    1  0.6836165E-004  0.1271515E+03  0.7546771E-02  0.1232535E+00
          1   -1    0    0  501    0  0.00000000000E+00  0.00000000000E+00  0.68425953605E+03  0.68425953605E+03  0.00000000000E+00 0. -1.
         -1   -1    0    0    0  501 -0.00000000000E+00 -0.00000000000E+00 -0.24507485964E+02  0.24507485964E+02  0.00000000000E+00 0.  1.
         23    2    1    2    0    0 -0.79809710397E+02  0.39653200106E+02  0.25209459186E+03  0.28234584560E+03  0.90694691840E+02 0.  0.
         23    2    1    2    0    0  0.79809710397E+02 -0.39653200106E+02  0.40765745823E+03  0.42642117642E+03  0.87797780712E+02 0.  0.
          5    1    4    4  502    0  0.72374786018E+01 -0.30838536898E+02  0.25602688996E+03  0.25802181078E+03  0.47000000000E+01 0. -1.
         -5    1    4    4    0  502  0.72572231795E+02 -0.88146632076E+01  0.15163056826E+03  0.16839936564E+03  0.47000000000E+01 0.  1.
          5    1    3    3  503    0 -0.71401744319E+02  0.59595212341E+02  0.23927290161E+03  0.25675554496E+03  0.47000000000E+01 0. -1.
         -5    1    3    3    0  503 -0.84079660776E+01 -0.19942012236E+02  0.12821690255E+02  0.25590300635E+02  0.47000000000E+01 0.  1.
<mgrwt>
<rscale>  0 0.12663587E+03</rscale>
<asrwt>0</asrwt>
<pdfrwt beam="1">  1        1 0.10527068E+00 0.12715146E+03</pdfrwt>
<pdfrwt beam="2">  1       -1 0.37703830E-02 0.12715146E+03</pdfrwt>
<totfact> 0.75037693E+03</totfact>
</mgrwt>
</event>
<event>
 8    1  0.6836165E-004  0.1131263E+03  0.7546771E-02  0.1263720E+00
         -1   -1    0    0    0  501 -0.00000000000E+00  0.00000000000E+00  0.12907627558E+02  0.12907627558E+02  0.00000000000E+00 0.  1.
          1   -1    0    0  501    0  0.00000000000E+00 -0.00000000000E+00 -0.84051822405E+03  0.84051822405E+03  0.00000000000E+00 0. -1.
         23    2    1    2    0    0  0.14837524983E+02  0.13317563822E+02 -0.36400851157E+03  0.37622101945E+03  0.92965312462E+02 0.  0.
         23    2    1    2    0    0 -0.14837524983E+02 -0.13317563822E+02 -0.46360208492E+03  0.47720483216E+03  0.11135550747E+03 0.  0.
          5    1    4    4  502    0 -0.52775590102E+02 -0.28656621271E+02 -0.37095122474E+03  0.37581027925E+03  0.47000000000E+01 0. -1.
         -5    1    4    4    0  502  0.37938065119E+02  0.15339057449E+02 -0.92650860179E+02  0.10139455291E+03  0.47000000000E+01 0.  1.
          5    1    3    3  503    0 -0.37567531636E+02  0.18533151168E+02 -0.16772413327E+03  0.17294008212E+03  0.47000000000E+01 0. -1.
         -5    1    3    3    0  503  0.52405056619E+02 -0.52155873463E+01 -0.19628437831E+03  0.20328093732E+03  0.47000000000E+01 0.  1.
<mgrwt>
<rscale>  0 0.10831637E+03</rscale>
<asrwt>0</asrwt>
<pdfrwt beam="1">  1        1 0.12931049E+00 0.11312630E+03</pdfrwt>
<pdfrwt beam="2">  1       -1 0.19857890E-02 0.11312630E+03</pdfrwt>
<totfact> 0.13933126E+04</totfact>
</mgrwt>
</event>
<event>
 8    1  0.7941783E-004  0.9262623E+02  0.7546771E-02  0.1306246E+00
         -4   -1    0    0    0  501 -0.00000000000E+00  0.00000000000E+00  0.16627591422E+03  0.16627591422E+03  0.00000000000E+00 0.  1.
          4   -1    0    0  501    0  0.00000000000E+00 -0.00000000000E+00 -0.11007768636E+03  0.11007768636E+03  0.00000000000E+00 0. -1.
         23    2    1    2    0    0  0.20436310506E+02  0.71652760363E+00 -0.80129038200E+02  0.11153630077E+03  0.74843352602E+02 0.  0.
         23    2    1    2    0    0 -0.20436310506E+02 -0.71652760363E+00  0.13632726606E+03  0.16481729980E+03  0.90340813838E+02 0.  0.
          5    1    3    3  502    0  0.71857278567E+01  0.37141866663E+02 -0.33791212504E+02  0.50942015925E+02  0.47000000000E+01 0. -1.
         -5    1    4    4    0  503  0.20701459289E+02 -0.27754092033E+02  0.24889552996E+02  0.42900115263E+02  0.47000000000E+01 0.  1.
          5    1    4    4  503    0 -0.41137769795E+02  0.27037564429E+02  0.11143771306E+03  0.12191718454E+03  0.47000000000E+01 0. -1.
         -5    1    3    3    0  502  0.13250582649E+02 -0.36425339059E+02 -0.46337825696E+02  0.60594284849E+02  0.47000000000E+01 0.  1.
<mgrwt>
<rscale>  0 0.88612952E+02</rscale>
<asrwt>0</asrwt>
<pdfrwt beam="1">  1        4 0.16935029E-01 0.92626232E+02</pdfrwt>
<pdfrwt beam="2">  1       -4 0.25580910E-01 0.92626232E+02</pdfrwt>
<totfact> 0.66453926E+02</totfact>
</mgrwt>
</event>
<event>
 8    1  0.6836165E-004  0.9537034E+02  0.7546771E-02  0.1290907E+00
         -1   -1    0    0    0  501 -0.00000000000E+00  0.00000000000E+00  0.38239570381E+02  0.38239570381E+02  0.00000000000E+00 0.  1.
          1   -1    0    0  501    0  0.00000000000E+00 -0.00000000000E+00 -0.42049874699E+03  0.42049874699E+03  0.00000000000E+00 0. -1.
         23    2    1    2    0    0 -0.10832733243E+02  0.31311048772E+01 -0.34388227857E+03  0.35686205075E+03  0.94701371813E+02 0.  0.
         23    2    1    2    0    0  0.10832733243E+02 -0.31311048772E+01 -0.38376898043E+02  0.10187626663E+03  0.93695439970E+02 0.  0.
          5    1    4    4  502    0  0.93744880515E+01  0.42451192475E+02 -0.34809081181E+02  0.55890490259E+02  0.47000000000E+01 0. -1.
         -5    1    4    4    0  502  0.14582451915E+01 -0.45582297352E+02 -0.35678168615E+01  0.45985776367E+02  0.47000000000E+01 0.  1.
          5    1    3    3  503    0  0.39398870637E+02  0.12857745392E+02 -0.11633430034E+03  0.12358540391E+03  0.47000000000E+01 0. -1.
         -5    1    3    3    0  503 -0.50231603879E+02 -0.97266405150E+01 -0.22754797823E+03  0.23327664684E+03  0.47000000000E+01 0.  1.
<mgrwt>
<rscale>  0 0.95119653E+02</rscale>
<asrwt>0</asrwt>
<pdfrwt beam="1">  1        1 0.64692110E-01 0.95370340E+02</pdfrwt>
<pdfrwt beam="2">  1       -1 0.58830112E-02 0.95370340E+02</pdfrwt>
<totfact> 0.72838732E+03</totfact>
</mgrwt>
</event>
<event>
 8    1  0.6836165E-004  0.9354783E+02  0.7546771E-02  0.1297432E+00
         -1   -1    0    0    0  501 -0.00000000000E+00  0.00000000000E+00  0.23122431347E+03  0.23122431347E+03  0.00000000000E+00 0.  1.
          1   -1    0    0  501    0  0.00000000000E+00 -0.00000000000E+00 -0.36808719095E+02  0.36808719095E+02  0.00000000000E+00 0. -1.
         23    2    1    2    0    0  0.40564892905E+01 -0.70377092441E+01  0.73076407463E+02  0.11481947405E+03  0.88189374855E+02 0.  0.
         23    2    1    2    0    0 -0.40564892905E+01  0.70377092441E+01  0.12133918692E+03  0.15321355851E+03  0.93194483607E+02 0.  0.
          5    1    3    3  502    0 -0.18329696108E+02 -0.41235413040E+02  0.50509173722E+02  0.67894062171E+02  0.47000000000E+01 0. -1.
         -5    1    4    4    0  503  0.36869361579E+02  0.53031719613E+01  0.99940923863E+02  0.10676025346E+03  0.47000000000E+01 0.  1.
          5    1    4    4  503    0 -0.40925850869E+02  0.17345372828E+01  0.21398263052E+02  0.46453305056E+02  0.47000000000E+01 0. -1.
         -5    1    3    3    0  502  0.22386185399E+02  0.34197703796E+02  0.22567233741E+02  0.46925411882E+02  0.47000000000E+01 0.  1.
<mgrwt>
<rscale>  0 0.92275835E+02</rscale>
<asrwt>0</asrwt>
<pdfrwt beam="1">  1        1 0.56628800E-02 0.93547829E+02</pdfrwt>
<pdfrwt beam="2">  1       -1 0.35572971E-01 0.93547829E+02</pdfrwt>
<totfact> 0.96718993E+03</totfact>
</mgrwt>
</event>
<event>
 8    1  0.6836165E-004  0.1684752E+03  0.7546771E-02  0.1179929E+00
          1   -1    0    0  501    0  0.00000000000E+00  0.00000000000E+00  0.43778221132E+03  0.43778221132E+03  0.00000000000E+00 0. -1.
         -1   -1    0    0    0  501 -0.00000000000E+00 -0.00000000000E+00 -0.64336246449E+02  0.64336246449E+02  0.00000000000E+00 0.  1.
         23    2    1    2    0    0 -0.14128390739E+03  0.63691948052E+01  0.17382889182E+03  0.24207516861E+03  0.91554325392E+02 0.  0.
         23    2    1    2    0    0  0.14128390739E+03 -0.63691948052E+01  0.19961707306E+03  0.26004328916E+03  0.88169310141E+02 0.  0.
          5    1    3    3  502    0 -0.26376847509E+02  0.31193006755E+02  0.85772988792E+02  0.95120120696E+02  0.47000000000E+01 0. -1.
         -5    1    3    3    0  502 -0.11490705988E+03 -0.24823811949E+02  0.88055903027E+02  0.14695504792E+03  0.47000000000E+01 0.  1.
          5    1    4    4  503    0  0.14370400337E+03  0.15079042976E+02  0.17335739964E+03  0.22572792501E+03  0.47000000000E+01 0. -1.
         -5    1    4    4    0  503 -0.24200959776E+01 -0.21448237781E+02  0.26259673420E+02  0.34315364147E+02  0.47000000000E+01 0.  1.
<mgrwt>
<rscale>  0 0.16801956E+03</rscale>
<asrwt>0</asrwt>
<pdfrwt beam="1">  1        1 0.67351108E-01 0.16847523E+03</pdfrwt>
<pdfrwt beam="2">  1       -1 0.98978843E-02 0.16847523E+03</pdfrwt>
<totfact> 0.32677580E+03</totfact>
</mgrwt>
</event>
<event>
 8    1  0.6836165E-004  0.1192799E+03  0.7546771E-02  0.1245427E+00
         -2   -1    0    0    0  501 -0.00000000000E+00  0.00000000000E+00  0.21354573947E+02  0.21354573947E+02  0.00000000000E+00 0.  1.
          2   -1    0    0  501    0  0.00000000000E+00 -0.00000000000E+00 -0.70346198480E+03  0.70346198480E+03  0.00000000000E+00 0. -1.
         23    2    1    2    0    0 -0.68549876815E+02 -0.23597317547E+02 -0.43616269659E+03  0.45147338801E+03  0.91292952500E+02 0.  0.
         23    2    1    2    0    0  0.68549876815E+02  0.23597317547E+02 -0.24594471425E+03  0.27334317073E+03  0.94719414631E+02 0.  0.
          5    1    3    3  502    0 -0.58042476389E+02 -0.51688521827E+02 -0.22394040779E+03  0.23709076025E+03  0.47000000000E+01 0. -1.
         -5    1    4    4    0  503  0.60949315143E+02  0.54099033802E+02 -0.13337990017E+03  0.15637714744E+03  0.47000000000E+01 0.  1.
          5    1    4    4  503    0  0.76005616720E+01 -0.30501716255E+02 -0.11256481409E+03  0.11696602329E+03  0.47000000000E+01 0. -1.
         -5    1    3    3    0  502 -0.10507400426E+02  0.28091204280E+02 -0.21222228880E+03  0.21438262776E+03  0.47000000000E+01 0.  1.
<mgrwt>
<rscale>  0 0.11859847E+03</rscale>
<asrwt>0</asrwt>
<pdfrwt beam="1">  1        2 0.10822490E+00 0.11927987E+03</pdfrwt>
<pdfrwt beam="2">  1       -2 0.32853198E-02 0.11927987E+03</pdfrwt>
<totfact> 0.14520325E+04</totfact>
</mgrwt>
</event>
<event>
 8    1  0.6836165E-004  0.1053894E+03  0.7546771E-02  0.1270121E+00
          3   -1    0    0  501    0  0.00000000000E+00  0.00000000000E+00  0.31140064348E+02  0.31140064348E+02  0.00000000000E+00 0. -1.
         -3   -1    0    0    0  501 -0.00000000000E+00 -0.00000000000E+00 -0.40042980349E+03  0.40042980349E+03  0.00000000000E+00 0.  1.
         23    2    1    2    0    0 -0.43235716277E+02 -0.24124961157E+02 -0.25891315235E+03  0.27895953079E+03  0.91274632000E+02 0.  0.
         23    2    1    2    0    0  0.43235716277E+02  0.24124961157E+02 -0.11037658679E+03  0.15261033705E+03  0.93035386539E+02 0.  0.
          5    1    3    3  502    0 -0.19911414876E+02 -0.36808752364E+01 -0.28494962958E+01  0.20981489794E+02  0.47000000000E+01 0. -1.
         -5    1    4    4    0  503  0.27551447801E+02  0.56800964075E+02 -0.44858232765E+02  0.77587259538E+02  0.47000000000E+01 0.  1.
          5    1    4    4  503    0  0.15684268476E+02 -0.32676002918E+02 -0.65518354027E+02  0.75023077508E+02  0.47000000000E+01 0. -1.
         -5    1    3    3    0  502 -0.23324301401E+02 -0.20444085920E+02 -0.25606365605E+03  0.25797804099E+03  0.47000000000E+01 0.  1.
<mgrwt>
<rscale>  0 0.10499947E+03</rscale>
<asrwt>0</asrwt>
<pdfrwt beam="1">  1        3 0.47907794E-02 0.10538939E+03</pdfrwt>
<pdfrwt beam="2">  1       -3 0.61604581E-01 0.10538939E+03</pdfrwt>
<totfact> 0.13988890E+03</totfact>
</mgrwt>
</event>
<event>
 8    1  0.6836165E-004  0.9376559E+02  0.7546771E-02  0.1294141E+00
         -1   -1    0    0    0  501 -0.00000000000E+00  0.00000000000E+00  0.28921941410E+03  0.28921941410E+03  0.00000000000E+00 0.  1.
          1   -1    0    0  501    0  0.00000000000E+00 -0.00000000000E+00 -0.93768460854E+02  0.93768460854E+02  0.00000000000E+00 0. -1.
         23    2    1    2    0    0  0.74798597398E+01  0.19177880287E+02  0.25521286181E+03  0.27179672461E+03  0.91192736976E+02 0.  0.
         23    2    1    2    0    0 -0.74798597398E+01 -0.19177880287E+02 -0.59761908566E+02  0.11119115035E+03  0.91478122011E+02 0.  0.
          5    1    4    4  502    0  0.41477470847E+02 -0.73000483155E+01 -0.34470106492E+02  0.54625539218E+02  0.47000000000E+01 0. -1.
         -5    1    3    3    0  503 -0.20799677643E+02  0.48006763968E+02  0.13294703417E+03  0.14294852176E+03  0.47000000000E+01 0.  1.
          5    1    3    3  503    0  0.28279537383E+02 -0.28828883682E+02  0.12226582764E+03  0.12884820285E+03  0.47000000000E+01 0. -1.
         -5    1    4    4    0  502 -0.48957330587E+02 -0.11877831971E+02 -0.25291802074E+02  0.56565611132E+02  0.47000000000E+01 0.  1.
<mgrwt>
<rscale>  0 0.93695914E+02</rscale>
<asrwt>0</asrwt>
<pdfrwt beam="1">  1        1 0.14425917E-01 0.93765592E+02</pdfrwt>
<pdfrwt beam="2">  1       -1 0.44495294E-01 0.93765592E+02</pdfrwt>
<totfact> 0.19152023E+03</totfact>
</mgrwt>
</event>
<event>
 8    1  0.6836165E-004  0.1279743E+03  0.7546771E-02  0.1230506E+00
          2   -1    0    0  501    0  0.00000000000E+00  0.00000000000E+00  0.79164109783E+02  0.79164109783E+02  0.00000000000E+00 0. -1.
         -2   -1    0    0    0  501 -0.00000000000E+00 -0.00000000000E+00 -0.21657758354E+03  0.21657758354E+03  0.00000000000E+00 0.  1.
         23    2    1    2    0    0  0.36052610131E+02  0.82173136727E+02 -0.10009385178E+03  0.16246906087E+03  0.91242542056E+02 0.  0.
         23    2    1    2    0    0 -0.36052610131E+02 -0.82173136727E+02 -0.37319621985E+02  0.13327263245E+03  0.91195533218E+02 0.  0.
          5    1    4    4  502    0  0.11350691087E+02 -0.34657326292E+02  0.22613730478E+02  0.43167571856E+02  0.47000000000E+01 0. -1.
         -5    1    4    4    0  502 -0.47403301218E+02 -0.47515810435E+02 -0.59933352462E+02  0.90105060596E+02  0.47000000000E+01 0.  1.
          5    1    3    3  503    0  0.25515615852E+02  0.10524302066E+02  0.10741798865E+02  0.29988061444E+02  0.47000000000E+01 0. -1.
         -5    1    3    3    0  503  0.10536994278E+02  0.71648834662E+02 -0.11083565064E+03  0.13248099943E+03  0.47000000000E+01 0.  1.
<mgrwt>
<rscale>  0 0.12796590E+03</rscale>
<asrwt>0</asrwt>
<pdfrwt beam="1">  1        2 0.12179094E-01 0.12797428E+03</pdfrwt>
<pdfrwt beam="2">  1       -2 0.33319627E-01 0.12797428E+03</pdfrwt>
<totfact> 0.40233507E+03</totfact>
</mgrwt>
</event>
<event>
 8    1  0.6836165E-004  0.9223112E+02  0.7546771E-02  0.1301684E+00
         -2   -1    0    0    0  501 -0.00000000000E+00  0.00000000000E+00  0.41045082445E+02  0.41045082445E+02  0.00000000000E+00 0.  1.
          2   -1    0    0  501    0  0.00000000000E+00 -0.00000000000E+00 -0.61168702178E+03  0.61168702178E+03  0.00000000000E+00 0. -1.
         23    2    1    2    0    0  0.17057556161E+02  0.20899837138E+02 -0.18562194922E+02  0.94080464838E+02  0.88197592763E+02 0.  0.
         23    2    1    2    0    0 -0.17057556161E+02 -0.20899837138E+02 -0.55207974442E+03  0.55865163939E+03  0.81066926575E+02 0.  0.
          5    1    3    3  502    0  0.29953949128E+02 -0.22155963118E+02 -0.29300631763E+02  0.47631321541E+02  0.47000000000E+01 0. -1.
         -5    1    4    4    0  503  0.31554571287E+02 -0.76040837222E+01 -0.16070455525E+03  0.16401694161E+03  0.47000000000E+01 0.  1.
          5    1    4    4  503    0 -0.48612127449E+02 -0.13295753416E+02 -0.39137518917E+03  0.39463469778E+03  0.47000000000E+01 0. -1.
         -5    1    3    3    0  502 -0.12896392966E+02  0.43055800256E+02  0.10738436841E+02  0.46449143297E+02  0.47000000000E+01 0.  1.
<mgrwt>
<rscale>  0 0.90483743E+02</rscale>
<asrwt>0</asrwt>
<pdfrwt beam="1">  1        2 0.94105689E-01 0.92231116E+02</pdfrwt>
<pdfrwt beam="2">  1       -2 0.63146285E-02 0.92231116E+02</pdfrwt>
<totfact> 0.63470605E+03</totfact>
</mgrwt>
</event>
<event>
 8    1  0.6836165E-004  0.9612263E+02  0.7546771E-02  0.1289872E+00
         -2   -1    0    0    0  501 -0.00000000000E+00  0.00000000000E+00  0.15886279121E+02  0.15886279121E+02  0.00000000000E+00 0. -1.
          2   -1    0    0  501    0  0.00000000000E+00 -0.00000000000E+00 -0.60086801952E+03  0.60086801952E+03  0.00000000000E+00 0.  1.
         23    2    1    2    0    0  0.21084256498E+02 -0.20498661613E+02 -0.36698254683E+03  0.37936229393E+03  0.91514039254E+02 0.  0.
         23    2    1    2    0    0 -0.21084256498E+02  0.20498661613E+02 -0.21799919357E+03  0.23739200470E+03  0.89255669298E+02 0.  0.
          5    1    4    4  502    0 -0.24270553579E+02  0.46331048563E+02 -0.19623322032E+03  0.20313835824E+03  0.47000000000E+01 0. -1.
         -5    1    4    4    0  502  0.31862970813E+01 -0.25832386950E+02 -0.21765973248E+02  0.34253646464E+02  0.47000000000E+01 0.  1.
          5    1    3    3  503    0 -0.20779856187E+02 -0.19927209096E+02 -0.29118581148E+03  0.29264340569E+03  0.47000000000E+01 0. -1.
         -5    1    3    3    0  503  0.41864112685E+02 -0.57145251630E+00 -0.75796735353E+02  0.86718888248E+02  0.47000000000E+01 0.  1.
<mgrwt>
<rscale>  0 0.95581186E+02</rscale>
<asrwt>0</asrwt>
<pdfrwt beam="1">  1        2 0.92441223E-01 0.96122632E+02</pdfrwt>
<pdfrwt beam="2">  1       -2 0.24440432E-02 0.96122632E+02</pdfrwt>
<totfact> 0.26286020E+04</totfact>
</mgrwt>
</event>
<event>
 8    1  0.6836165E-004  0.9682140E+02  0.7546771E-02  0.1288286E+00
          1   -1    0    0  501    0  0.00000000000E+00  0.00000000000E+00  0.36826429748E+03  0.36826429748E+03  0.00000000000E+00 0. -1.
         -1   -1    0    0    0  501 -0.00000000000E+00 -0.00000000000E+00 -0.25052470674E+02  0.25052470674E+02  0.00000000000E+00 0.  1.
         23    2    1    2    0    0 -0.15884215676E+02  0.10394812981E+02  0.18460006008E+03  0.20748868788E+03  0.92811707075E+02 0.  0.
         23    2    1    2    0    0  0.15884215676E+02 -0.10394812981E+02  0.15861176672E+03  0.18582808028E+03  0.94942205743E+02 0.  0.
          5    1    4    4  502    0  0.97705756360E+01  0.40049666467E+02  0.99087038630E+02  0.10742332687E+03  0.47000000000E+01 0. -1.
         -5    1    4    4    0  502  0.61136400397E+01 -0.50444479448E+02  0.59524728095E+02  0.78404753402E+02  0.47000000000E+01 0.  1.
          5    1    3    3  503    0  0.30963568005E+02  0.24698325994E+02  0.11884913607E+03  0.12536330003E+03  0.47000000000E+01 0. -1.
         -5    1    3    3    0  503 -0.46847783680E+02 -0.14303513013E+02  0.65750924016E+02  0.82125387848E+02  0.47000000000E+01 0.  1.
<mgrwt>
<rscale>  0 0.96295064E+02</rscale>
<asrwt>0</asrwt>
<pdfrwt beam="1">  1        1 0.56656042E-01 0.96821397E+02</pdfrwt>
<pdfrwt beam="2">  1       -1 0.38542265E-02 0.96821397E+02</pdfrwt>
<totfact> 0.15969728E+04</totfact>
</mgrwt>
</event>
<event>
 8    1  0.6836165E-004  0.9259434E+02  0.7546771E-02  0.1297844E+00
          1   -1    0    0  501    0  0.00000000000E+00  0.00000000000E+00  0.79816431305E+02  0.79816431305E+02  0.00000000000E+00 0. -1.
         -1   -1    0    0    0  501 -0.00000000000E+00 -0.00000000000E+00 -0.12173943910E+03  0.12173943910E+03  0.00000000000E+00 0.  1.
         23    2    1    2    0    0 -0.21266976361E+02  0.96045039541E+01 -0.58349934610E+02  0.10944600137E+03  0.89605700533E+02 0.  0.
         23    2    1    2    0    0  0.21266976361E+02 -0.96045039541E+01  0.16426926819E+02  0.92109869028E+02  0.87577698462E+02 0.  0.
          5    1    4    4  502    0  0.28551127792E+02  0.34862756755E+02  0.92393417871E+01  0.46238881295E+02  0.47000000000E+01 0. -1.
         -5    1    4    4    0  502 -0.72841514313E+01 -0.44467260709E+02  0.71875850324E+01  0.45870987733E+02  0.47000000000E+01 0.  1.
          5    1    3    3  503    0 -0.12098304448E+02 -0.19301809011E+02  0.16521037572E+02  0.28530045287E+02  0.47000000000E+01 0. -1.
         -5    1    3    3    0  503 -0.91686719126E+01  0.28906312965E+02 -0.74870972182E+02  0.80915956086E+02  0.47000000000E+01 0.  1.
<mgrwt>
<rscale>  0 0.92100124E+02</rscale>
<asrwt>0</asrwt>
<pdfrwt beam="1">  1        1 0.12279451E-01 0.92594343E+02</pdfrwt>
<pdfrwt beam="2">  1       -1 0.18729145E-01 0.92594343E+02</pdfrwt>
<totfact> 0.99144302E+03</totfact>
</mgrwt>
</event>
<event>
 8    1  0.6836165E-004  0.1014613E+03  0.7546771E-02  0.1277369E+00
         -3   -1    0    0    0  501 -0.00000000000E+00  0.00000000000E+00  0.13055524905E+02  0.13055524905E+02  0.00000000000E+00 0.  1.
          3   -1    0    0  501    0  0.00000000000E+00 -0.00000000000E+00 -0.83266073536E+03  0.83266073536E+03  0.00000000000E+00 0. -1.
         23    2    1    2    0    0 -0.30457534985E+02 -0.32269448626E+02 -0.31008705441E+03  0.32619422839E+03  0.90992936912E+02 0.  0.
         23    2    1    2    0    0  0.30457534985E+02  0.32269448626E+02 -0.50951815604E+03  0.51952203188E+03  0.91243693024E+02 0.  0.
          5    1    4    4  502    0  0.47600541651E+02  0.53033639799E+02 -0.41620638593E+03  0.42228926603E+03  0.47000000000E+01 0. -1.
         -5    1    4    4    0  502 -0.17143006666E+02 -0.20764191173E+02 -0.93311770119E+02  0.97232765853E+02  0.47000000000E+01 0.  1.
          5    1    3    3  503    0 -0.29906104557E+02  0.25880138101E+02 -0.16671303990E+03  0.17140444659E+03  0.47000000000E+01 0. -1.
         -5    1    3    3    0  503 -0.55143042787E+00 -0.58149586727E+02 -0.14337401451E+03  0.15478978180E+03  0.47000000000E+01 0.  1.
<mgrwt>
<rscale>  0 0.10140487E+03</rscale>
<asrwt>0</asrwt>
<pdfrwt beam="1">  1        3 0.12810171E+00 0.10146127E+03</pdfrwt>
<pdfrwt beam="2">  1       -3 0.20085413E-02 0.10146127E+03</pdfrwt>
<totfact> 0.10560127E+03</totfact>
</mgrwt>
</event>
<event>
 8    1  0.6836165E-004  0.9902177E+02  0.7546771E-02  0.1284046E+00
         -2   -1    0    0    0  501 -0.00000000000E+00  0.00000000000E+00  0.15130924892E+02  0.15130924892E+02  0.00000000000E+00 0. -1.
          2   -1    0    0  501    0  0.00000000000E+00 -0.00000000000E+00 -0.66650719054E+03  0.66650719054E+03  0.00000000000E+00 0.  1.
         23    2    1    2    0    0  0.40339046997E+02  0.79722361189E+01 -0.41256656787E+03  0.42428349571E+03  0.90080611338E+02 0.  0.
         23    2    1    2    0    0 -0.40339046997E+02 -0.79722361189E+01 -0.23880969777E+03  0.25735461973E+03  0.86663332978E+02 0.  0.
          5    1    3    3  502    0  0.29597529838E+02 -0.36166597289E+02 -0.13389098508E+03  0.14189052970E+03  0.47000000000E+01 0. -1.
         -5    1    3    3    0  502  0.10741517159E+02  0.44138833407E+02 -0.27867558279E+03  0.28239296601E+03  0.47000000000E+01 0.  1.
          5    1    4    4  503    0 -0.19864554911E+02 -0.45603278318E+02 -0.96575354618E+02  0.10873430303E+03  0.47000000000E+01 0. -1.
         -5    1    4    4    0  503 -0.20474492086E+02  0.37631042199E+02 -0.14223434316E+03  0.14862031670E+03  0.47000000000E+01 0.  1.
<mgrwt>
<rscale>  0 0.98237962E+02</rscale>
<asrwt>0</asrwt>
<pdfrwt beam="1">  1        2 0.10253956E+00 0.99021774E+02</pdfrwt>
<pdfrwt beam="2">  1       -2 0.23278347E-02 0.99021774E+02</pdfrwt>
<totfact> 0.25141093E+04</totfact>
</mgrwt>
</event>
<event>
 8    1  0.6836165E-004  0.1139812E+03  0.7546771E-02  0.1254687E+00
          1   -1    0    0  501    0  0.00000000000E+00  0.00000000000E+00  0.69648901347E+02  0.69648901347E+02  0.00000000000E+00 0. -1.
         -1   -1    0    0    0  501 -0.00000000000E+00 -0.00000000000E+00 -0.82921240924E+03  0.82921240924E+03  0.00000000000E+00 0.  1.
         23    2    1    2    0    0  0.33914006230E+02  0.51837408820E+02 -0.77799589408E+03  0.78630104551E+03  0.95678870085E+02 0.  0.
         23    2    1    2    0    0 -0.33914006230E+02 -0.51837408820E+02  0.18432386194E+02  0.11256026508E+03  0.92156300065E+02 0.  0.
          5    1    4    4  502    0  0.65047174696E+01 -0.64985815530E+02  0.23344648004E+02  0.69516402093E+02  0.47000000000E+01 0. -1.
         -5    1    3    3    0  503  0.60487851969E+02  0.78619547084E+01 -0.47824334397E+03  0.48214041172E+03  0.47000000000E+01 0.  1.
          5    1    3    3  503    0 -0.26573845739E+02  0.43975454112E+02 -0.29975255012E+03  0.30416063378E+03  0.47000000000E+01 0. -1.
         -5    1    4    4    0  502 -0.40418723700E+02  0.13148406710E+02 -0.49122618102E+01  0.43043862985E+02  0.47000000000E+01 0.  1.
<mgrwt>
<rscale>  0 0.11323891E+03</rscale>
<asrwt>0</asrwt>
<pdfrwt beam="1">  1        1 0.10715216E-01 0.11398124E+03</pdfrwt>
<pdfrwt beam="2">  1       -1 0.12757114E+00 0.11398124E+03</pdfrwt>
<totfact> 0.33494979E+02</totfact>
</mgrwt>
</event>
<event>
 8    1  0.6836165E-004  0.9326483E+02  0.7546771E-02  0.1296347E+00
         -2   -1    0    0    0  501 -0.00000000000E+00  0.00000000000E+00  0.94712952426E+02  0.94712952426E+02  0.00000000000E+00 0.  1.
          2   -1    0    0  501    0  0.00000000000E+00 -0.00000000000E+00 -0.11595725016E+03  0.11595725016E+03  0.00000000000E+00 0. -1.
         23    2    1    2    0    0  0.86381869851E+01  0.46453259275E+01  0.39493637839E+02  0.99371389550E+02  0.90657202162E+02 0.  0.
         23    2    1    2    0    0 -0.86381869851E+01 -0.46453259275E+01 -0.60737935577E+02  0.11129881304E+03  0.92747677268E+02 0.  0.
          5    1    4    4  502    0 -0.29249697389E+01 -0.48443193181E+02 -0.34196212444E+02  0.59554759332E+02  0.47000000000E+01 0. -1.
         -5    1    4    4    0  502 -0.57132172462E+01  0.43797867254E+02 -0.26541723132E+02  0.51744053708E+02  0.47000000000E+01 0.  1.
          5    1    3    3  503    0  0.29659816504E+02 -0.30014200309E+02  0.40324306166E+02  0.58555073248E+02  0.47000000000E+01 0. -1.
         -5    1    3    3    0  503 -0.21021629519E+02  0.34659526237E+02 -0.83066832686E+00  0.40816316302E+02  0.47000000000E+01 0.  1.
<mgrwt>
<rscale>  0 0.92740777E+02</rscale>
<asrwt>0</asrwt>
<pdfrwt beam="1">  1        2 0.17839577E-01 0.93264832E+02</pdfrwt>
<pdfrwt beam="2">  1       -2 0.14571223E-01 0.93264832E+02</pdfrwt>
<totfact> 0.10354086E+04</totfact>
</mgrwt>
</event>
<event>
 8    1  0.6836165E-004  0.1243360E+03  0.7546771E-02  0.1236671E+00
          1   -1    0    0  501    0  0.00000000000E+00  0.00000000000E+00  0.23941613216E+02  0.23941613216E+02  0.00000000000E+00 0. -1.
         -1   -1    0    0    0  501 -0.00000000000E+00 -0.00000000000E+00 -0.74161144752E+03  0.74161144752E+03  0.00000000000E+00 0.  1.
         23    2    1    2    0    0 -0.77961242097E+02 -0.27263224483E+02 -0.49987346445E+03  0.51476491352E+03  0.91039535623E+02 0.  0.
         23    2    1    2    0    0  0.77961242097E+02  0.27263224483E+02 -0.21779636985E+03  0.25078814722E+03  0.92941903288E+02 0.  0.
          5    1    3    3  502    0  0.82057149562E+01 -0.32781824740E+02 -0.10037279325E+03  0.10601306248E+03  0.47000000000E+01 0. -1.
         -5    1    4    4    0  503  0.30798982787E+02  0.48619966210E+01 -0.18772005991E+03  0.19035001247E+03  0.47000000000E+01 0.  1.
          5    1    4    4  503    0  0.47162259309E+02  0.22401227862E+02 -0.30076309937E+02  0.60438134752E+02  0.47000000000E+01 0. -1.
         -5    1    3    3    0  502 -0.86166957053E+02  0.55186002570E+01 -0.39950067121E+03  0.40875185104E+03  0.47000000000E+01 0.  1.
<mgrwt>
<rscale>  0 0.12398058E+03</rscale>
<asrwt>0</asrwt>
<pdfrwt beam="1">  1        1 0.36833260E-02 0.12433598E+03</pdfrwt>
<pdfrwt beam="2">  1       -1 0.11409404E+00 0.12433598E+03</pdfrwt>
<totfact> 0.18412207E+03</totfact>
</mgrwt>
</event>
<event>
 8    1  0.6836165E-004  0.9191831E+02  0.7546771E-02  0.1298743E+00
          1   -1    0    0  501    0  0.00000000000E+00  0.00000000000E+00  0.74073644258E+02  0.74073644258E+02  0.00000000000E+00 0. -1.
         -1   -1    0    0    0  501 -0.00000000000E+00 -0.00000000000E+00 -0.36981492868E+03  0.36981492868E+03  0.00000000000E+00 0.  1.
         23    2    1    2    0    0  0.93461310253E+01  0.87125362833E+01 -0.33299328279E+03  0.34544681386E+03  0.91025910419E+02 0.  0.
         23    2    1    2    0    0 -0.93461310253E+01 -0.87125362833E+01  0.37251998373E+02  0.98441759076E+02  0.90220896103E+02 0.  0.
          5    1    4    4  502    0 -0.48063290642E+02  0.25027589243E+01  0.30845017265E+02  0.57357203555E+02  0.47000000000E+01 0. -1.
         -5    1    4    4    0  502  0.38717159617E+02 -0.11215295208E+02  0.64069811075E+01  0.41084555521E+02  0.47000000000E+01 0.  1.
          5    1    3    3  503    0 -0.57247739464E+01  0.33382603369E+02 -0.47899796314E+02  0.58852797141E+02  0.47000000000E+01 0. -1.
         -5    1    3    3    0  503  0.15070904972E+02 -0.24670067086E+02 -0.28509348648E+03  0.28659401672E+03  0.47000000000E+01 0.  1.
<mgrwt>
<rscale>  0 0.91718371E+02</rscale>
<asrwt>0</asrwt>
<pdfrwt beam="1">  1        1 0.11395946E-01 0.91918305E+02</pdfrwt>
<pdfrwt beam="2">  1       -1 0.56894602E-01 0.91918305E+02</pdfrwt>
<totfact> 0.16627176E+03</totfact>
</mgrwt>
</event>
<event>
 7    1  0.6836165E-004  0.2087791E+03  0.7546771E-02  0.1148148E+00
          1   -1    0    0  501    0  0.00000000000E+00  0.00000000000E+00  0.85445366422E+03  0.85445366422E+03  0.00000000000E+00 0. -1.
         -1   -1    0    0    0  501 -0.00000000000E+00 -0.00000000000E+00 -0.39532515549E+03  0.39532515549E+03  0.00000000000E+00 0.  1.
         23    2    1    2    0    0  0.15349902850E+03  0.40613436004E+02  0.81607904793E+03  0.83625446252E+03  0.90139395818E+02 0.  0.
          5    1    1    2  502    0 -0.33917005142E+02 -0.16702955929E+02 -0.19669552207E+01  0.38148537160E+02  0.47000000000E+01 0. -1.
         -5    1    1    2    0  502 -0.11958202336E+03 -0.23910480075E+02 -0.35498358398E+03  0.37537582003E+03  0.47000000000E+01 0.  1.
          5    1    3    3  503    0  0.10254318265E+03  0.57123106303E+01  0.31479696852E+03  0.33116001599E+03  0.47000000000E+01 0.  1.
         -5    1    3    3    0  503  0.50955845857E+02  0.34901125374E+02  0.50128207940E+03  0.50509444653E+03  0.47000000000E+01 0. -1.
<mgrwt>
<rscale>  0 0.20189719E+03</rscale>
<asrwt>0</asrwt>
<pdfrwt beam="1">  1        1 0.13145441E+00 0.20877909E+03</pdfrwt>
<pdfrwt beam="2">  1       -1 0.60819255E-01 0.20877909E+03</pdfrwt>
<totfact> 0.60796739E+01</totfact>
</mgrwt>
</event>
<event>
 8    1  0.6836165E-004  0.9212177E+02  0.7546771E-02  0.1298648E+00
          1   -1    0    0  501    0  0.00000000000E+00  0.00000000000E+00  0.87135082184E+02  0.87135082184E+02  0.00000000000E+00 0. -1.
         -1   -1    0    0    0  501 -0.00000000000E+00 -0.00000000000E+00 -0.16829771797E+03  0.16829771797E+03  0.00000000000E+00 0.  1.
         23    2    1    2    0    0  0.10548275213E+01 -0.89467383670E+01  0.43382279467E+02  0.10052038249E+03  0.90228423108E+02 0.  0.
         23    2    1    2    0    0 -0.10548275213E+01  0.89467383670E+01 -0.12454491525E+03  0.15491241766E+03  0.91680229282E+02 0.  0.
          5    1    3    3  502    0  0.36498721958E+02 -0.12005184947E+02  0.50809898799E+02  0.63875010655E+02  0.47000000000E+01 0. -1.
         -5    1    3    3    0  502 -0.35443894436E+02  0.30584465797E+01 -0.74276193323E+01  0.36645371839E+02  0.47000000000E+01 0.  1.
          5    1    4    4  503    0 -0.15964967445E+02 -0.36063942177E+02 -0.32717433024E+02  0.51458804247E+02  0.47000000000E+01 0. -1.
         -5    1    4    4    0  503  0.14910139923E+02  0.45010680544E+02 -0.91827482224E+02  0.10345361341E+03  0.47000000000E+01 0.  1.
<mgrwt>
<rscale>  0 0.91758446E+02</rscale>
<asrwt>0</asrwt>
<pdfrwt beam="1">  1        1 0.13405397E-01 0.92121774E+02</pdfrwt>
<pdfrwt beam="2">  1       -1 0.25891956E-01 0.92121774E+02</pdfrwt>
<totfact> 0.52620669E+03</totfact>
</mgrwt>
</event>
<event>
 8    1  0.6836165E-004  0.9214410E+02  0.7546771E-02  0.1298194E+00
         -1   -1    0    0    0  501 -0.00000000000E+00  0.00000000000E+00  0.47800833721E+02  0.47800833721E+02  0.00000000000E+00 0.  1.
          1   -1    0    0  501    0  0.00000000000E+00 -0.00000000000E+00 -0.18410893321E+03  0.18410893321E+03  0.00000000000E+00 0. -1.
         23    2    1    2    0    0 -0.72804708182E+01  0.56459697804E+00 -0.92546908563E+02  0.13059657363E+03  0.91854290782E+02 0.  0.
         23    2    1    2    0    0  0.72804708182E+01 -0.56459697804E+00 -0.43761190927E+02  0.10131319330E+03  0.91082365362E+02 0.  0.
          5    1    3    3  502    0  0.39665796411E+02  0.95794634807E+01 -0.59464069056E+02  0.72271758206E+02  0.47000000000E+01 0. -1.
         -5    1    4    4    0  503 -0.20897419775E+02 -0.28496505683E+02  0.73909366927E+01  0.36406990188E+02  0.47000000000E+01 0.  1.
          5    1    4    4  503    0  0.28177890593E+02  0.27931908705E+02 -0.51152127620E+02  0.64906203110E+02  0.47000000000E+01 0. -1.
         -5    1    3    3    0  502 -0.46946267229E+02 -0.90148665027E+01 -0.33082839507E+02  0.58324815427E+02  0.47000000000E+01 0.  1.
<mgrwt>
<rscale>  0 0.91951123E+02</rscale>
<asrwt>0</asrwt>
<pdfrwt beam="1">  1        1 0.28324451E-01 0.92144098E+02</pdfrwt>
<pdfrwt beam="2">  1       -1 0.73539745E-02 0.92144098E+02</pdfrwt>
<totfact> 0.14390754E+04</totfact>
</mgrwt>
</event>
<event>
 8    1  0.6836165E-004  0.1578784E+03  0.7546771E-02  0.1191343E+00
          2   -1    0    0  501    0  0.00000000000E+00  0.00000000000E+00  0.52945415903E+03  0.52945415903E+03  0.00000000000E+00 0. -1.
         -2   -1    0    0    0  501 -0.00000000000E+00 -0.00000000000E+00 -0.62440437465E+02  0.62440437465E+02  0.00000000000E+00 0.  1.
         23    2    1    2    0    0 -0.12663362878E+03  0.20197210234E+02  0.38098838459E+03  0.41210042157E+03  0.90722681956E+02 0.  0.
         23    2    1    2    0    0  0.12663362878E+03 -0.20197210234E+02  0.86025336971E+02  0.17979417493E+03  0.92095512906E+02 0.  0.
          5    1    4    4  502    0  0.49881915782E+01  0.26145606058E+02  0.20871650712E+02  0.34149532571E+02  0.47000000000E+01 0. -1.
         -5    1    3    3    0  503 -0.60673442282E+02 -0.24510095281E+02  0.96968158072E+02  0.11707657771E+03  0.47000000000E+01 0.  1.
          5    1    3    3  503    0 -0.65960186499E+02  0.44707305515E+02  0.28402022652E+03  0.29502384385E+03  0.47000000000E+01 0. -1.
         -5    1    4    4    0  502  0.12164543720E+03 -0.46342816292E+02  0.65153686259E+02  0.14564464236E+03  0.47000000000E+01 0.  1.
<mgrwt>
<rscale>  0 0.15767880E+03</rscale>
<asrwt>0</asrwt>
<pdfrwt beam="1">  1        2 0.81454483E-01 0.15787839E+03</pdfrwt>
<pdfrwt beam="2">  1       -2 0.96062215E-02 0.15787839E+03</pdfrwt>
<totfact> 0.40262955E+03</totfact>
</mgrwt>
</event>
<event>
 8    1  0.6836165E-004  0.9283344E+02  0.7546771E-02  0.1296735E+00
          1   -1    0    0  501    0  0.00000000000E+00  0.00000000000E+00  0.50452448299E+03  0.50452448299E+03  0.00000000000E+00 0. -1.
         -1   -1    0    0    0  501 -0.00000000000E+00 -0.00000000000E+00 -0.19498369238E+02  0.19498369238E+02  0.00000000000E+00 0.  1.
         23    2    1    2    0    0  0.99187848224E+01  0.95446102115E+01  0.14789548537E+03  0.17461707088E+03  0.91807216350E+02 0.  0.
         23    2    1    2    0    0 -0.99187848224E+01 -0.95446102115E+01  0.33713062839E+03  0.34940578135E+03  0.90762644128E+02 0.  0.
          5    1    4    4  502    0 -0.23794121234E+02  0.23437137184E+02  0.27866652114E+03  0.28070015962E+03  0.47000000000E+01 0.  1.
         -5    1    4    4    0  502  0.13875336412E+02 -0.32981747396E+02  0.58464107248E+02  0.68705621736E+02  0.47000000000E+01 0. -1.
          5    1    3    3  503    0 -0.68850378454E+01 -0.32702755201E+02  0.11056597423E+03  0.11560189705E+03  0.47000000000E+01 0. -1.
         -5    1    3    3    0  503  0.16803822668E+02  0.42247365412E+02  0.37329511140E+02  0.59015173832E+02  0.47000000000E+01 0.  1.
<mgrwt>
<rscale>  0 0.92574128E+02</rscale>
<asrwt>0</asrwt>
<pdfrwt beam="1">  1        1 0.77619141E-01 0.92833436E+02</pdfrwt>
<pdfrwt beam="2">  1       -1 0.29997495E-02 0.92833436E+02</pdfrwt>
<totfact> 0.15385586E+04</totfact>
</mgrwt>
</event>
<event>
 8    1  0.6836165E-004  0.1174217E+03  0.7546771E-02  0.1248582E+00
          2   -1    0    0  501    0  0.00000000000E+00  0.00000000000E+00  0.10043414936E+03  0.10043414936E+03  0.00000000000E+00 0. -1.
         -2   -1    0    0    0  501 -0.00000000000E+00 -0.00000000000E+00 -0.19403506455E+03  0.19403506455E+03  0.00000000000E+00 0.  1.
         23    2    1    2    0    0 -0.61424885439E+02  0.31296501477E+02 -0.12899155076E+03  0.17443243287E+03  0.95054541778E+02 0.  0.
         23    2    1    2    0    0  0.61424885439E+02 -0.31296501477E+02  0.35390635571E+02  0.12003678104E+03  0.91672483115E+02 0.  0.
          5    1    3    3  502    0 -0.51017990558E+02  0.63532661955E+02 -0.77034091530E+02  0.11223001271E+03  0.47000000000E+01 0. -1.
         -5    1    3    3    0  502 -0.10406894882E+02 -0.32236160478E+02 -0.51957459232E+02  0.62202420156E+02  0.47000000000E+01 0.  1.
          5    1    4    4  503    0  0.68547045382E+02  0.51548306032E+00  0.49007282743E+02  0.84396486392E+02  0.47000000000E+01 0. -1.
         -5    1    4    4    0  503 -0.71221599427E+01 -0.31811984537E+02 -0.13616647172E+02  0.35640294648E+02  0.47000000000E+01 0.  1.
<mgrwt>
<rscale>  0 0.11673554E+03</rscale>
<asrwt>0</asrwt>
<pdfrwt beam="1">  1        2 0.15451408E-01 0.11742169E+03</pdfrwt>
<pdfrwt beam="2">  1       -2 0.29851548E-01 0.11742169E+03</pdfrwt>
<totfact> 0.36865840E+03</totfact>
</mgrwt>
</event>
<event>
 8    1  0.6836165E-004  0.9330206E+02  0.7546771E-02  0.1296701E+00
         -1   -1    0    0    0  501 -0.00000000000E+00  0.00000000000E+00  0.39762183716E+02  0.39762183716E+02  0.00000000000E+00 0.  1.
          1   -1    0    0  501    0  0.00000000000E+00 -0.00000000000E+00 -0.21239285129E+03  0.21239285129E+03  0.00000000000E+00 0. -1.
         23    2    1    2    0    0  0.17019101431E+01  0.68775794139E+01 -0.83555326503E+02  0.12316010742E+03  0.90203779720E+02 0.  0.
         23    2    1    2    0    0 -0.17019101431E+01 -0.68775794139E+01 -0.89075341071E+02  0.12899492759E+03  0.93032668236E+02 0.  0.
          5    1    4    4  502    0  0.43725873943E+02  0.33349300593E+01 -0.28756394296E+02  0.52650679231E+02  0.47000000000E+01 0. -1.
         -5    1    4    4    0  502 -0.45427784086E+02 -0.10212509473E+02 -0.60318946775E+02  0.76344248354E+02  0.47000000000E+01 0.  1.
          5    1    3    3  503    0  0.39666170088E+02 -0.14880662236E+02 -0.58929330037E+02  0.72729602616E+02  0.47000000000E+01 0. -1.
         -5    1    3    3    0  503 -0.37964259945E+02  0.21758241650E+02 -0.24625996466E+02  0.50430504804E+02  0.47000000000E+01 0.  1.
<mgrwt>
<rscale>  0 0.92588809E+02</rscale>
<asrwt>0</asrwt>
<pdfrwt beam="1">  1        1 0.32675823E-01 0.93302063E+02</pdfrwt>
<pdfrwt beam="2">  1       -1 0.61172590E-02 0.93302063E+02</pdfrwt>
<totfact> 0.15879588E+04</totfact>
</mgrwt>
</event>
<event>
 8    1  0.6836165E-004  0.1177100E+03  0.7546771E-02  0.1251350E+00
         -1   -1    0    0    0  501 -0.00000000000E+00  0.00000000000E+00  0.32135817975E+02  0.32135817975E+02  0.00000000000E+00 0.  1.
          1   -1    0    0  501    0  0.00000000000E+00 -0.00000000000E+00 -0.76827030361E+03  0.76827030361E+03  0.00000000000E+00 0. -1.
         23    2    1    2    0    0 -0.54201733156E+02 -0.39747491889E+02 -0.81015980540E+02  0.13479670759E+03  0.84195441011E+02 0.  0.
         23    2    1    2    0    0  0.54201733156E+02  0.39747491889E+02 -0.65511850510E+03  0.66560941399E+03  0.96633044482E+02 0.  0.
          5    1    4    4  502    0  0.31751589757E+01  0.54026769824E+02 -0.46587998649E+03  0.46903648611E+03  0.47000000000E+01 0. -1.
         -5    1    3    3    0  503  0.22417917300E+02 -0.59417115358E+01 -0.14568153678E+02  0.27788271872E+02  0.47000000000E+01 0.  1.
          5    1    3    3  503    0 -0.76619650456E+02 -0.33805780354E+02 -0.66447826862E+02  0.10700843572E+03  0.47000000000E+01 0. -1.
         -5    1    4    4    0  502  0.51026574181E+02 -0.14279277934E+02 -0.18923851861E+03  0.19657292788E+03  0.47000000000E+01 0.  1.
<mgrwt>
<rscale>  0 0.11513249E+03</rscale>
<asrwt>0</asrwt>
<pdfrwt beam="1">  1        1 0.11819542E+00 0.11770997E+03</pdfrwt>
<pdfrwt beam="2">  1       -1 0.49439726E-02 0.11770997E+03</pdfrwt>
<totfact> 0.42486582E+03</totfact>
</mgrwt>
</event>
<event>
 8    1  0.6836165E-004  0.1083029E+03  0.7546771E-02  0.1263900E+00
         -3   -1    0    0    0  501 -0.00000000000E+00  0.00000000000E+00  0.28645664454E+03  0.28645664454E+03  0.00000000000E+00 0.  1.
          3   -1    0    0  501    0  0.00000000000E+00 -0.00000000000E+00 -0.46333223621E+02  0.46333223621E+02  0.00000000000E+00 0. -1.
         23    2    1    2    0    0  0.28978568459E+02  0.50477075588E+02  0.17760214161E+03  0.20801932672E+03  0.91333602763E+02 0.  0.
         23    2    1    2    0    0 -0.28978568459E+02 -0.50477075588E+02  0.62521279306E+02  0.12477054144E+03  0.90945505966E+02 0.  0.
          5    1    3    3  502    0  0.43475194825E+02  0.15822148090E+02  0.29305392246E+02  0.54966616687E+02  0.47000000000E+01 0. -1.
         -5    1    4    4    0  503 -0.30508844653E+02  0.20103246768E+02  0.26472944971E+02  0.45363387749E+02  0.47000000000E+01 0.  1.
          5    1    4    4  503    0  0.15302761933E+01 -0.70580322356E+02  0.36048334335E+02  0.79407153691E+02  0.47000000000E+01 0. -1.
         -5    1    3    3    0  502 -0.14496626366E+02  0.34654927498E+02  0.14829674936E+03  0.15305271003E+03  0.47000000000E+01 0.  1.
<mgrwt>
<rscale>  0 0.10822104E+03</rscale>
<asrwt>0</asrwt>
<pdfrwt beam="1">  1        3 0.71281884E-02 0.10830291E+03</pdfrwt>
<pdfrwt beam="2">  1       -3 0.44070252E-01 0.10830291E+03</pdfrwt>
<totfact> 0.14621765E+03</totfact>
</mgrwt>
</event>
<event>
 8    1  0.6836165E-004  0.9493695E+02  0.7546771E-02  0.1292391E+00
          2   -1    0    0  501    0  0.00000000000E+00  0.00000000000E+00  0.83102462820E+03  0.83102462820E+03  0.00000000000E+00 0. -1.
         -2   -1    0    0    0  501 -0.00000000000E+00 -0.00000000000E+00 -0.12475159368E+02  0.12475159368E+02  0.00000000000E+00 0.  1.
         23    2    1    2    0    0 -0.90203475616E+00  0.23729251337E+02  0.57489503397E+03  0.58268115190E+03  0.91919169142E+02 0.  0.
         23    2    1    2    0    0  0.90203475616E+00 -0.23729251337E+02  0.24365443486E+03  0.26081863567E+03  0.89972140412E+02 0.  0.
          5    1    4    4  502    0  0.27950694640E+02 -0.16706778204E+02  0.22382924167E+03  0.22623434132E+03  0.47000000000E+01 0. -1.
         -5    1    4    4    0  502 -0.27048659884E+02 -0.70224731337E+01  0.19825193196E+02  0.34584294350E+02  0.47000000000E+01 0.  1.
          5    1    3    3  503    0  0.21369337802E+02  0.45775908934E+02  0.47914413083E+03  0.48182286221E+03  0.47000000000E+01 0. -1.
         -5    1    3    3    0  503 -0.22271372559E+02 -0.22046657596E+02  0.95750903142E+02  0.10085828969E+03  0.47000000000E+01 0.  1.
<mgrwt>
<rscale>  0 0.94462440E+02</rscale>
<asrwt>0</asrwt>
<pdfrwt beam="1">  1        2 0.12784990E+00 0.94936951E+02</pdfrwt>
<pdfrwt beam="2">  1       -2 0.19192559E-02 0.94936951E+02</pdfrwt>
<totfact> 0.25404601E+04</totfact>
</mgrwt>
</event>
<event>
 8    1  0.6836165E-004  0.1354547E+03  0.7546771E-02  0.1221560E+00
          1   -1    0    0  501    0  0.00000000000E+00  0.00000000000E+00  0.96281766156E+02  0.96281766156E+02  0.00000000000E+00 0. -1.
         -1   -1    0    0    0  501 -0.00000000000E+00 -0.00000000000E+00 -0.20009979978E+03  0.20009979978E+03  0.00000000000E+00 0.  1.
         23    2    1    2    0    0 -0.84761430081E+02 -0.51178511420E+02 -0.74679265221E+01  0.13015481945E+03  0.84147293710E+02 0.  0.
         23    2    1    2    0    0  0.84761430081E+02  0.51178511420E+02 -0.96350107104E+02  0.16622674649E+03  0.92435101823E+02 0.  0.
          5    1    4    4  502    0  0.63844866349E+02  0.75448984367E+02 -0.53404619546E+02  0.11244047132E+03  0.47000000000E+01 0. -1.
         -5    1    3    3    0  503 -0.76309775979E+02 -0.69475020731E+02 -0.21013213983E+02  0.10542108697E+03  0.47000000000E+01 0.  1.
          5    1    3    3  503    0 -0.84516541019E+01  0.18296509311E+02  0.13545287461E+02  0.24733732481E+02  0.47000000000E+01 0. -1.
         -5    1    4    4    0  502  0.20916563733E+02 -0.24270472947E+02 -0.42945487558E+02  0.53786275173E+02  0.47000000000E+01 0.  1.
<mgrwt>
<rscale>  0 0.13405460E+03</rscale>
<asrwt>0</asrwt>
<pdfrwt beam="1">  1        1 0.14812579E-01 0.13545475E+03</pdfrwt>
<pdfrwt beam="2">  1       -1 0.30784584E-01 0.13545475E+03</pdfrwt>
<totfact> 0.35600687E+03</totfact>
</mgrwt>
</event>
<event>
 8    1  0.6836165E-004  0.9910503E+02  0.7546771E-02  0.1283799E+00
          3   -1    0    0  501    0  0.00000000000E+00  0.00000000000E+00  0.42121034440E+03  0.42121034440E+03  0.00000000000E+00 0. -1.
         -3   -1    0    0    0  501 -0.00000000000E+00 -0.00000000000E+00 -0.27326214215E+02  0.27326214215E+02  0.00000000000E+00 0.  1.
         23    2    1    2    0    0 -0.34179738733E+02  0.84114485609E+01  0.10639560449E+03  0.14540230750E+03  0.92643398935E+02 0.  0.
         23    2    1    2    0    0  0.34179738733E+02 -0.84114485609E+01  0.28748852570E+03  0.30313425112E+03  0.89452304510E+02 0.  0.
          5    1    4    4  502    0  0.63852325264E+02 -0.24824881141E+01  0.21746694851E+03  0.22670960695E+03  0.47000000000E+01 0. -1.
         -5    1    4    4    0  502 -0.29672586531E+02 -0.59289604468E+01  0.70021577193E+02  0.76424644167E+02  0.47000000000E+01 0.  1.
          5    1    3    3  503    0 -0.11191990811E+02 -0.20856007944E+02  0.10513584435E+03  0.10786968755E+03  0.47000000000E+01 0. -1.
         -5    1    3    3    0  503 -0.22987747922E+02  0.29267456505E+02  0.12597601388E+01  0.37532619951E+02  0.47000000000E+01 0.  1.
<mgrwt>
<rscale>  0 0.98352409E+02</rscale>
<asrwt>0</asrwt>
<pdfrwt beam="1">  1        3 0.64801587E-01 0.99105027E+02</pdfrwt>
<pdfrwt beam="2">  1       -3 0.42040333E-02 0.99105027E+02</pdfrwt>
<totfact> 0.15292940E+03</totfact>
</mgrwt>
</event>
<event>
 8    1  0.6836165E-004  0.1183673E+03  0.7546771E-02  0.1246049E+00
         -1   -1    0    0    0  501 -0.00000000000E+00  0.00000000000E+00  0.33969113211E+02  0.33969113211E+02  0.00000000000E+00 0.  1.
          1   -1    0    0  501    0  0.00000000000E+00 -0.00000000000E+00 -0.42306283529E+03  0.42306283529E+03  0.00000000000E+00 0. -1.
         23    2    1    2    0    0  0.69477869118E+02  0.28052632526E+02 -0.15565385725E+03  0.19554781461E+03  0.91633509333E+02 0.  0.
         23    2    1    2    0    0 -0.69477869118E+02 -0.28052632526E+02 -0.23343986483E+03  0.26148413389E+03  0.90915660356E+02 0.  0.
          5    1    3    3  502    0  0.61565958372E+02 -0.21824608301E+02 -0.10580685963E+03  0.12443416855E+03  0.47000000000E+01 0. -1.
         -5    1    3    3    0  502  0.79119107460E+01  0.49877240827E+02 -0.49846997621E+02  0.71113646061E+02  0.47000000000E+01 0.  1.
          5    1    4    4  503    0 -0.82909164733E+02 -0.43657741074E+02 -0.16440104823E+03  0.18928740743E+03  0.47000000000E+01 0. -1.
         -5    1    4    4    0  503  0.13431295616E+02  0.15605108548E+02 -0.69038816597E+02  0.72196726462E+02  0.47000000000E+01 0.  1.
<mgrwt>
<rscale>  0 0.11822837E+03</rscale>
<asrwt>0</asrwt>
<pdfrwt beam="1">  1        1 0.65086588E-01 0.11836733E+03</pdfrwt>
<pdfrwt beam="2">  1       -1 0.52260176E-02 0.11836733E+03</pdfrwt>
<totfact> 0.87443619E+03</totfact>
</mgrwt>
</event>
<event>
 8    1  0.6836165E-004  0.1129541E+03  0.7546771E-02  0.1255361E+00
         -1   -1    0    0    0  501 -0.00000000000E+00  0.00000000000E+00  0.11908390414E+02  0.11908390414E+02  0.00000000000E+00 0.  1.
          1   -1    0    0  501    0  0.00000000000E+00 -0.00000000000E+00 -0.11926468781E+04  0.11926468781E+04  0.00000000000E+00 0. -1.
         23    2    1    2    0    0 -0.64876496674E+02 -0.15353208967E+02 -0.78604262509E+03  0.79411688734E+03  0.91180817346E+02 0.  0.
         23    2    1    2    0    0  0.64876496674E+02  0.15353208967E+02 -0.39469586261E+03  0.41043838119E+03  0.90720228973E+02 0.  0.
          5    1    3    3  502    0 -0.28916420904E+02 -0.52779332924E+02 -0.38534081395E+03  0.39004031878E+03  0.47000000000E+01 0. -1.
         -5    1    4    4    0  503  0.46125410696E+02  0.44451999289E+02 -0.14877022946E+03  0.16204383643E+03  0.47000000000E+01 0.  1.
          5    1    4    4  503    0  0.18751085978E+02 -0.29098790322E+02 -0.24592563315E+03  0.24839454475E+03  0.47000000000E+01 0. -1.
         -5    1    3    3    0  502 -0.35960075770E+02  0.37426123956E+02 -0.40070181114E+03  0.40407656856E+03  0.47000000000E+01 0.  1.
<mgrwt>
<rscale>  0 0.11286109E+03</rscale>
<asrwt>0</asrwt>
<pdfrwt beam="1">  1        1 0.18348425E+00 0.11295407E+03</pdfrwt>
<pdfrwt beam="2">  1       -1 0.18320589E-02 0.11295407E+03</pdfrwt>
<totfact> 0.86802663E+03</totfact>
</mgrwt>
</event>
<event>
 8    1  0.6836165E-004  0.1154947E+03  0.7546771E-02  0.1252146E+00
          2   -1    0    0  501    0  0.00000000000E+00  0.00000000000E+00  0.57303909754E+03  0.57303909754E+03  0.00000000000E+00 0. -1.
         -2   -1    0    0    0  501 -0.00000000000E+00 -0.00000000000E+00 -0.24170388866E+02  0.24170388866E+02  0.00000000000E+00 0.  1.
         23    2    1    2    0    0 -0.37251921043E+02  0.58432470013E+02  0.35346282174E+03  0.37185345394E+03  0.92395701642E+02 0.  0.
         23    2    1    2    0    0  0.37251921043E+02 -0.58432470013E+02  0.19540588693E+03  0.22535603246E+03  0.88316598365E+02 0.  0.
          5    1    3    3  502    0 -0.65891409408E+02  0.41259599922E+02  0.19784206437E+03  0.21262080061E+03  0.47000000000E+01 0. -1.
         -5    1    3    3    0  502  0.28639488366E+02  0.17172870091E+02  0.15562075737E+03  0.15923265333E+03  0.47000000000E+01 0.  1.
          5    1    4    4  503    0 -0.27667710038E+02 -0.19606524981E+02  0.83032080761E+02  0.89812774348E+02  0.47000000000E+01 0. -1.
         -5    1    4    4    0  503  0.64919631080E+02 -0.38825945033E+02  0.11237380617E+03  0.13554325812E+03  0.47000000000E+01 0.  1.
<mgrwt>
<rscale>  0 0.11467690E+03</rscale>
<asrwt>0</asrwt>
<pdfrwt beam="1">  1        2 0.88159851E-01 0.11549470E+03</pdfrwt>
<pdfrwt beam="2">  1       -2 0.37185218E-02 0.11549470E+03</pdfrwt>
<totfact> 0.15273567E+04</totfact>
</mgrwt>
</event>
<event>
 8    1  0.6836165E-004  0.1032342E+03  0.7546771E-02  0.1274334E+00
         -3   -1    0    0    0  501 -0.00000000000E+00  0.00000000000E+00  0.61361651836E+03  0.61361651836E+03  0.00000000000E+00 0.  1.
          3   -1    0    0  501    0  0.00000000000E+00 -0.00000000000E+00 -0.17217416277E+02  0.17217416277E+02  0.00000000000E+00 0. -1.
         23    2    1    2    0    0 -0.47007953391E+01 -0.44533710252E+02  0.31763299768E+03  0.33356665014E+03  0.91491201997E+02 0.  0.
         23    2    1    2    0    0  0.47007953391E+01  0.44533710252E+02  0.27876610441E+03  0.29726728450E+03  0.93015851578E+02 0.  0.
          5    1    4    4  502    0  0.31676573917E+01  0.72466725273E+02  0.17052525688E+03  0.18537101596E+03  0.47000000000E+01 0. -1.
         -5    1    3    3    0  503 -0.40336936961E+02 -0.21185549089E+02  0.24487587967E+03  0.24912282596E+03  0.47000000000E+01 0.  1.
          5    1    3    3  503    0  0.35636141622E+02 -0.23348161163E+02  0.72757118014E+02  0.84443824174E+02  0.47000000000E+01 0. -1.
         -5    1    4    4    0  502  0.15331379474E+01 -0.27933015021E+02  0.10824084753E+03  0.11189626854E+03  0.47000000000E+01 0.  1.
<mgrwt>
<rscale>  0 0.10288957E+03</rscale>
<asrwt>0</asrwt>
<pdfrwt beam="1">  1        3 0.26488337E-02 0.10323419E+03</pdfrwt>
<pdfrwt beam="2">  1       -3 0.94402525E-01 0.10323419E+03</pdfrwt>
<totfact> 0.13992040E+03</totfact>
</mgrwt>
</event>
<event>
 8    1  0.6836165E-004  0.9481214E+02  0.7546771E-02  0.1291780E+00
          1   -1    0    0  501    0  0.00000000000E+00  0.00000000000E+00  0.13661344615E+03  0.13661344615E+03  0.00000000000E+00 0. -1.
         -1   -1    0    0    0  501 -0.00000000000E+00 -0.00000000000E+00 -0.99141826818E+02  0.99141826818E+02  0.00000000000E+00 0.  1.
         23    2    1    2    0    0 -0.17738957542E+02  0.86840357957E+01  0.87340514715E+02  0.12890968542E+03  0.92732186389E+02 0.  0.
         23    2    1    2    0    0  0.17738957542E+02 -0.86840357957E+01 -0.49868895380E+02  0.10684558755E+03  0.92406654307E+02 0.  0.
          5    1    4    4  502    0  0.20774569444E+02  0.23971277885E+02 -0.63407515964E+02  0.71054964497E+02  0.47000000000E+01 0. -1.
         -5    1    3    3    0  503  0.10704200660E+02 -0.37844682157E+02  0.30429869649E+02  0.49948642086E+02  0.47000000000E+01 0.  1.
          5    1    3    3  503    0 -0.28443158202E+02  0.46528717953E+02  0.56910645066E+02  0.78961043336E+02  0.47000000000E+01 0. -1.
         -5    1    4    4    0  502 -0.30356119021E+01 -0.32655313681E+02  0.13538620584E+02  0.35790623053E+02  0.47000000000E+01 0.  1.
<mgrwt>
<rscale>  0 0.94732446E+02</rscale>
<asrwt>0</asrwt>
<pdfrwt beam="1">  1        1 0.21017453E-01 0.94812138E+02</pdfrwt>
<pdfrwt beam="2">  1       -1 0.15252589E-01 0.94812138E+02</pdfrwt>
<totfact> 0.69088272E+03</totfact>
</mgrwt>
</event>
<event>
 8    1  0.6836165E-004  0.9570988E+02  0.7546771E-02  0.1291178E+00
          3   -1    0    0  501    0  0.00000000000E+00  0.00000000000E+00  0.16408043517E+03  0.16408043517E+03  0.00000000000E+00 0. -1.
         -3   -1    0    0    0  501 -0.00000000000E+00 -0.00000000000E+00 -0.54460955762E+02  0.54460955762E+02  0.00000000000E+00 0.  1.
         23    2    1    2    0    0  0.83609917538E+01  0.33411189921E+02  0.48073243120E+02  0.10710470129E+03  0.89298188891E+02 0.  0.
         23    2    1    2    0    0 -0.83609917538E+01 -0.33411189921E+02  0.61546236290E+02  0.11143668964E+03  0.86278518777E+02 0.  0.
          5    1    4    4  502    0 -0.47049436019E+02 -0.13972336942E+02  0.34355596551E+02  0.60093865275E+02  0.47000000000E+01 0. -1.
         -5    1    3    3    0  503  0.13681070418E+02  0.62881618198E+02  0.39287577866E+02  0.75543850640E+02  0.47000000000E+01 0.  1.
          5    1    3    3  503    0 -0.53200786641E+01 -0.29470428276E+02  0.87856652546E+01  0.31560850650E+02  0.47000000000E+01 0. -1.
         -5    1    4    4    0  502  0.38688444265E+02 -0.19438852979E+02  0.27190639740E+02  0.51342824369E+02  0.47000000000E+01 0.  1.
<mgrwt>
<rscale>  0 0.94999244E+02</rscale>
<asrwt>0</asrwt>
<pdfrwt beam="1">  1        3 0.25243144E-01 0.95709876E+02</pdfrwt>
<pdfrwt beam="2">  1       -3 0.83786086E-02 0.95709876E+02</pdfrwt>
<totfact> 0.31110394E+03</totfact>
</mgrwt>
</event>
<event>
 8    1  0.6836165E-004  0.1555340E+03  0.7546771E-02  0.1195186E+00
          2   -1    0    0  501    0  0.00000000000E+00  0.00000000000E+00  0.22355861914E+03  0.22355861914E+03  0.00000000000E+00 0. -1.
         -2   -1    0    0    0  501 -0.00000000000E+00 -0.00000000000E+00 -0.16077055852E+03  0.16077055852E+03  0.00000000000E+00 0.  1.
         23    2    1    2    0    0 -0.83169878677E+02  0.87395153395E+02  0.14480007423E+03  0.21250382176E+03  0.98161454807E+02 0.  0.
         23    2    1    2    0    0  0.83169878677E+02 -0.87395153395E+02 -0.82012013604E+02  0.17182535591E+03  0.90790093081E+02 0.  0.
          5    1    4    4  502    0  0.22504194498E+02  0.17556267797E+02 -0.22798882014E+02  0.36831241223E+02  0.47000000000E+01 0. -1.
         -5    1    3    3    0  503 -0.21498415311E+02 -0.18489639539E+02  0.10394252970E+02  0.30564344031E+02  0.47000000000E+01 0.  1.
          5    1    3    3  503    0 -0.61671463365E+02  0.10588479293E+03  0.13440582125E+03  0.18193947773E+03  0.47000000000E+01 0. -1.
         -5    1    4    4    0  502  0.60665684178E+02 -0.10495142119E+03 -0.59213131589E+02  0.13499411468E+03  0.47000000000E+01 0.  1.
<mgrwt>
<rscale>  0 0.15438531E+03</rscale>
<asrwt>0</asrwt>
<pdfrwt beam="1">  1        2 0.34393634E-01 0.15553396E+03</pdfrwt>
<pdfrwt beam="2">  1       -2 0.24733932E-01 0.15553396E+03</pdfrwt>
<totfact> 0.21378317E+03</totfact>
</mgrwt>
</event>
<event>
 8    1  0.6836165E-004  0.1028203E+03  0.7546771E-02  0.1274478E+00
         -2   -1    0    0    0  501 -0.00000000000E+00  0.00000000000E+00  0.20592755199E+03  0.20592755199E+03  0.00000000000E+00 0.  1.
          2   -1    0    0  501    0  0.00000000000E+00 -0.00000000000E+00 -0.54052844591E+02  0.54052844591E+02  0.00000000000E+00 0. -1.
         23    2    1    2    0    0  0.31262170089E+02 -0.35742081878E+02  0.10508076136E+03  0.14701280248E+03  0.91191984239E+02 0.  0.
         23    2    1    2    0    0 -0.31262170089E+02  0.35742081878E+02  0.46793946042E+02  0.11296759410E+03  0.91198597772E+02 0.  0.
          5    1    4    4  502    0  0.29188116439E+02 -0.29346885968E+01  0.60814940551E+01  0.30325453143E+02  0.47000000000E+01 0. -1.
         -5    1    3    3    0  503 -0.23331647155E+02 -0.37603965468E+02  0.66320614734E+02  0.79868253497E+02  0.47000000000E+01 0.  1.
          5    1    3    3  503    0  0.54593817244E+02  0.18618835899E+01  0.38760146627E+02  0.67144548984E+02  0.47000000000E+01 0. -1.
         -5    1    4    4    0  502 -0.60450286527E+02  0.38676770475E+02  0.40712451987E+02  0.82642140960E+02  0.47000000000E+01 0.  1.
<mgrwt>
<rscale>  0 0.10281878E+03</rscale>
<asrwt>0</asrwt>
<pdfrwt beam="1">  1        2 0.83158223E-02 0.10282025E+03</pdfrwt>
<pdfrwt beam="2">  1       -2 0.31681162E-01 0.10282025E+03</pdfrwt>
<totfact> 0.69058411E+03</totfact>
</mgrwt>
</event>
<event>
 8    1  0.6836165E-004  0.1567147E+03  0.7546771E-02  0.1192567E+00
          1   -1    0    0  501    0  0.00000000000E+00  0.00000000000E+00  0.72892075460E+03  0.72892075460E+03  0.00000000000E+00 0. -1.
         -1   -1    0    0    0  501 -0.00000000000E+00 -0.00000000000E+00 -0.33640090745E+02  0.33640090745E+02  0.00000000000E+00 0.  1.
         23    2    1    2    0    0 -0.32327012908E+02 -0.12307979677E+03  0.35925941091E+03  0.39195257808E+03  0.91464894915E+02 0.  0.
         23    2    1    2    0    0  0.32327012908E+02  0.12307979677E+03  0.33602125294E+03  0.37060826726E+03  0.90810424492E+02 0.  0.
          5    1    4    4  502    0 -0.48427007926E+01  0.36130135333E+02  0.22480897554E+02  0.43085022746E+02  0.47000000000E+01 0. -1.
         -5    1    4    4    0  502  0.37169713700E+02  0.86949661434E+02  0.31354035539E+03  0.32752324451E+03  0.47000000000E+01 0.  1.
          5    1    3    3  503    0 -0.54554121667E+00 -0.11540524369E+03  0.32236496944E+03  0.34243237494E+03  0.47000000000E+01 0. -1.
         -5    1    3    3    0  503 -0.31781471691E+02 -0.76745530820E+01  0.36894441473E+02  0.49520203144E+02  0.47000000000E+01 0.  1.
<mgrwt>
<rscale>  0 0.15661935E+03</rscale>
<asrwt>0</asrwt>
<pdfrwt beam="1">  1        1 0.11214164E+00 0.15671471E+03</pdfrwt>
<pdfrwt beam="2">  1       -1 0.51753991E-02 0.15671471E+03</pdfrwt>
<totfact> 0.43399566E+03</totfact>
</mgrwt>
</event>
<event>
 8    1  0.6836165E-004  0.1833852E+03  0.7546771E-02  0.1164864E+00
          1   -1    0    0  501    0  0.00000000000E+00  0.00000000000E+00  0.77146490598E+02  0.77146490598E+02  0.00000000000E+00 0. -1.
         -1   -1    0    0    0  501 -0.00000000000E+00 -0.00000000000E+00 -0.45981458272E+03  0.45981458272E+03  0.00000000000E+00 0.  1.
         23    2    1    2    0    0  0.85213148239E+02 -0.13082531220E+03 -0.25684787973E+03  0.31559619375E+03  0.96195536487E+02 0.  0.
         23    2    1    2    0    0 -0.85213148239E+02  0.13082531220E+03 -0.12582021239E+03  0.22136487957E+03  0.93782413677E+02 0.  0.
          5    1    4    4  502    0 -0.21040885184E+02  0.11337212996E+03 -0.77049417981E+02  0.13876116716E+03  0.47000000000E+01 0. -1.
         -5    1    4    4    0  502 -0.64172263055E+02  0.17453182242E+02 -0.48770794413E+02  0.82603712408E+02  0.47000000000E+01 0.  1.
          5    1    3    3  503    0  0.38715206608E+02 -0.57120105767E+02 -0.35665214508E+02  0.77818193447E+02  0.47000000000E+01 0. -1.
         -5    1    3    3    0  503  0.46497941632E+02 -0.73705206437E+02 -0.22118266522E+03  0.23777800030E+03  0.47000000000E+01 0.  1.
<mgrwt>
<rscale>  0 0.18307082E+03</rscale>
<asrwt>0</asrwt>
<pdfrwt beam="1">  1        1 0.11868690E-01 0.18338518E+03</pdfrwt>
<pdfrwt beam="2">  1       -1 0.70740708E-01 0.18338518E+03</pdfrwt>
<totfact> 0.10605332E+03</totfact>
</mgrwt>
</event>
<event>
 8    1  0.6836165E-004  0.9577797E+02  0.7546771E-02  0.1292975E+00
         -2   -1    0    0    0  501 -0.00000000000E+00  0.00000000000E+00  0.21136954899E+03  0.21136954899E+03  0.00000000000E+00 0.  1.
          2   -1    0    0  501    0  0.00000000000E+00 -0.00000000000E+00 -0.40801424733E+02  0.40801424733E+02  0.00000000000E+00 0. -1.
         23    2    1    2    0    0 -0.24868951929E+01 -0.41791909606E+01  0.89772318667E+02  0.12686581924E+03  0.89510985961E+02 0.  0.
         23    2    1    2    0    0  0.24868951929E+01  0.41791909606E+01  0.80795805592E+02  0.12530515449E+03  0.95654426216E+02 0.  0.
          5    1    4    4  502    0 -0.84504179832E+01 -0.42643450920E+02  0.21222513576E+02  0.48604100166E+02  0.47000000000E+01 0. -1.
         -5    1    4    4    0  502  0.10937313176E+02  0.46822641880E+02  0.59573292016E+02  0.76701054320E+02  0.47000000000E+01 0.  1.
          5    1    3    3  503    0 -0.50580468886E+00 -0.45539812555E+02  0.60798127518E+02  0.76109346835E+02  0.47000000000E+01 0. -1.
         -5    1    3    3    0  503 -0.19810905040E+01  0.41360621594E+02  0.28974191149E+02  0.50756472405E+02  0.47000000000E+01 0.  1.
<mgrwt>
<rscale>  0 0.94205946E+02</rscale>
<asrwt>0</asrwt>
<pdfrwt beam="1">  1        2 0.62771424E-02 0.95777970E+02</pdfrwt>
<pdfrwt beam="2">  1       -2 0.32518392E-01 0.95777970E+02</pdfrwt>
<totfact> 0.93153203E+03</totfact>
</mgrwt>
</event>
<event>
 8    1  0.6836165E-004  0.1025222E+03  0.7546771E-02  0.1276636E+00
          2   -1    0    0  501    0  0.00000000000E+00  0.00000000000E+00  0.61123189803E+03  0.61123189803E+03  0.00000000000E+00 0. -1.
         -2   -1    0    0    0  501 -0.00000000000E+00 -0.00000000000E+00 -0.17287842295E+02  0.17287842295E+02  0.00000000000E+00 0.  1.
         23    2    1    2    0    0 -0.80279220148E+01 -0.38166228953E+02  0.23449412579E+03  0.25473497595E+03  0.91549464108E+02 0.  0.
         23    2    1    2    0    0  0.80279220148E+01  0.38166228953E+02  0.35944992995E+03  0.37378476438E+03  0.94813972478E+02 0.  0.
          5    1    4    4  502    0 -0.39308136947E+02  0.31072493374E+01  0.19596605466E+03  0.19994891650E+03  0.47000000000E+01 0. -1.
         -5    1    3    3    0  503  0.80405130624E+01 -0.55447151644E+02  0.76606947074E+02  0.95025001003E+02  0.47000000000E+01 0.  1.
          5    1    3    3  503    0 -0.16068435077E+02  0.17280922691E+02  0.15788717872E+03  0.15970997495E+03  0.47000000000E+01 0. -1.
         -5    1    4    4    0  502  0.47336058962E+02  0.35058979615E+02  0.16348387528E+03  0.17383584788E+03  0.47000000000E+01 0.  1.
<mgrwt>
<rscale>  0 0.10176092E+03</rscale>
<asrwt>0</asrwt>
<pdfrwt beam="1">  1        2 0.94035660E-01 0.10252218E+03</pdfrwt>
<pdfrwt beam="2">  1       -2 0.26596685E-02 0.10252218E+03</pdfrwt>
<totfact> 0.22955684E+04</totfact>
</mgrwt>
</event>
<event>
 8    1  0.6836165E-004  0.9871634E+02  0.7546771E-02  0.1284001E+00
         -4   -1    0    0    0  501 -0.00000000000E+00  0.00000000000E+00  0.35783349242E+02  0.35783349242E+02  0.00000000000E+00 0.  1.
          4   -1    0    0  501    0  0.00000000000E+00 -0.00000000000E+00 -0.28121276419E+03  0.28121276419E+03  0.00000000000E+00 0. -1.
         23    2    1    2    0    0  0.87228654880E+01  0.35987446155E+02 -0.86426624881E+02  0.12984162319E+03  0.89543849373E+02 0.  0.
         23    2    1    2    0    0 -0.87228654880E+01 -0.35987446155E+02 -0.15900279006E+03  0.18715449024E+03  0.91508094212E+02 0.  0.
          5    1    4    4  502    0 -0.19522701798E+02  0.10256122985E+02 -0.12862393414E+03  0.13058533753E+03  0.47000000000E+01 0. -1.
         -5    1    3    3    0  503  0.27910511325E+02 -0.15177040825E+02 -0.61954286453E+02  0.69783685920E+02  0.47000000000E+01 0.  1.
          5    1    3    3  503    0 -0.19187645837E+02  0.51164486980E+02 -0.24472338428E+02  0.60057937268E+02  0.47000000000E+01 0. -1.
         -5    1    4    4    0  502  0.10799836310E+02 -0.46243569140E+02 -0.30378855922E+02  0.56569152710E+02  0.47000000000E+01 0.  1.
<mgrwt>
<rscale>  0 0.98258664E+02</rscale>
<asrwt>0</asrwt>
<pdfrwt beam="1">  1        4 0.43263504E-01 0.98716341E+02</pdfrwt>
<pdfrwt beam="2">  1       -4 0.55051305E-02 0.98716341E+02</pdfrwt>
<totfact> 0.16230723E+03</totfact>
</mgrwt>
</event>
<event>
 8    1  0.6836165E-004  0.1029192E+03  0.7546771E-02  0.1274956E+00
          1   -1    0    0  501    0  0.00000000000E+00  0.00000000000E+00  0.35674108869E+03  0.35674108869E+03  0.00000000000E+00 0. -1.
         -1   -1    0    0    0  501 -0.00000000000E+00 -0.00000000000E+00 -0.45635653063E+02  0.45635653063E+02  0.00000000000E+00 0.  1.
         23    2    1    2    0    0  0.25171852846E+02  0.35514284177E+02  0.34558770849E+02  0.10729975720E+03  0.91782583836E+02 0.  0.
         23    2    1    2    0    0 -0.25171852846E+02 -0.35514284177E+02  0.27654666478E+03  0.29507698456E+03  0.93260294118E+02 0.  0.
          5    1    4    4  502    0 -0.46293780577E+00 -0.64164343764E+02  0.15990193109E+03  0.17236007336E+03  0.47000000000E+01 0. -1.
         -5    1    3    3    0  503 -0.18273178391E+02 -0.17378066552E+02 -0.76242497412E+01  0.26760519983E+02  0.47000000000E+01 0.  1.
          5    1    3    3  503    0  0.43445031237E+02  0.52892350729E+02  0.42183020590E+02  0.80539237214E+02  0.47000000000E+01 0. -1.
         -5    1    4    4    0  502 -0.24708915040E+02  0.28650059587E+02  0.11664473369E+03  0.12271691120E+03  0.47000000000E+01 0.  1.
<mgrwt>
<rscale>  0 0.10258332E+03</rscale>
<asrwt>0</asrwt>
<pdfrwt beam="1">  1        1 0.54883243E-01 0.10291924E+03</pdfrwt>
<pdfrwt beam="2">  1       -1 0.70208699E-02 0.10291924E+03</pdfrwt>
<totfact> 0.69150059E+03</totfact>
</mgrwt>
</event>
<event>
 8    1  0.6836165E-004  0.1491547E+03  0.7546771E-02  0.1205117E+00
         -2   -1    0    0    0  501 -0.00000000000E+00  0.00000000000E+00  0.55213285790E+02  0.55213285790E+02  0.00000000000E+00 0.  1.
          2   -1    0    0  501    0  0.00000000000E+00 -0.00000000000E+00 -0.86908540326E+03  0.86908540326E+03  0.00000000000E+00 0. -1.
         23    2    1    2    0    0  0.57024238430E+02 -0.88273522876E+02 -0.76266291246E+03  0.77711122472E+03  0.10584497593E+03 0.  0.
         23    2    1    2    0    0 -0.57024238430E+02  0.88273522876E+02 -0.51209205002E+02  0.14718746433E+03  0.89430354849E+02 0.  0.
          5    1    3    3  502    0  0.87447450089E+02 -0.73656250434E+02 -0.61630128539E+03  0.62683463858E+03  0.47000000000E+01 0. -1.
         -5    1    3    3    0  502 -0.30423211660E+02 -0.14617272442E+02 -0.14636162708E+03  0.15027658614E+03  0.47000000000E+01 0.  1.
          5    1    4    4  503    0 -0.13627683420E+02  0.60083666107E+02 -0.68664350420E+02  0.92372310282E+02  0.47000000000E+01 0. -1.
         -5    1    4    4    0  503 -0.43396555009E+02  0.28189856769E+02  0.17455145418E+02  0.54815154044E+02  0.47000000000E+01 0.  1.
<mgrwt>
<rscale>  0 0.14628211E+03</rscale>
<asrwt>0</asrwt>
<pdfrwt beam="1">  1        2 0.13370544E+00 0.14915474E+03</pdfrwt>
<pdfrwt beam="2">  1       -2 0.84943519E-02 0.14915474E+03</pdfrwt>
<totfact> 0.27019401E+03</totfact>
</mgrwt>
</event>
<event>
 8    1  0.6836165E-004  0.3918214E+03  0.7546771E-02  0.1046772E+00
          1   -1    0    0  501    0  0.00000000000E+00  0.00000000000E+00  0.74470346955E+03  0.74470346955E+03  0.00000000000E+00 0. -1.
         -1   -1    0    0    0  501 -0.00000000000E+00 -0.00000000000E+00 -0.21360330879E+03  0.21360330879E+03  0.00000000000E+00 0.  1.
         23    2    1    2    0    0 -0.29891116890E+02 -0.37887788774E+03  0.17225147861E+03  0.42801233379E+03  0.95299807498E+02 0.  0.
         23    2    1    2    0    0  0.29891116890E+02  0.37887788774E+03  0.35884868214E+03  0.53029444454E+03  0.89430914947E+02 0.  0.
          5    1    4    4  502    0  0.27012300040E+02  0.37701394570E+02  0.64976950198E+02  0.79969704032E+02  0.47000000000E+01 0. -1.
         -5    1    3    3    0  503  0.25274434785E+02 -0.38370754142E+02  0.12551601291E+02  0.47861722933E+02  0.47000000000E+01 0.  1.
          5    1    3    3  503    0 -0.55165551674E+02 -0.34050713359E+03  0.15969987732E+03  0.38015061086E+03  0.47000000000E+01 0. -1.
         -5    1    4    4    0  502  0.28788168494E+01  0.34117649317E+03  0.29387173195E+03  0.45032474051E+03  0.47000000000E+01 0.  1.
<mgrwt>
<rscale>  0 0.39147442E+03</rscale>
<asrwt>0</asrwt>
<pdfrwt beam="1">  1        1 0.11456976E+00 0.39182137E+03</pdfrwt>
<pdfrwt beam="2">  1       -1 0.32862048E-01 0.39182137E+03</pdfrwt>
<totfact> 0.22345979E+02</totfact>
</mgrwt>
</event>
<event>
 8    1  0.6836165E-004  0.1320594E+03  0.7546771E-02  0.1224825E+00
          2   -1    0    0  501    0  0.00000000000E+00  0.00000000000E+00  0.41218594088E+03  0.41218594088E+03  0.00000000000E+00 0. -1.
         -2   -1    0    0    0  501 -0.00000000000E+00 -0.00000000000E+00 -0.46200438851E+02  0.46200438851E+02  0.00000000000E+00 0.  1.
         23    2    1    2    0    0  0.93072784820E+02 -0.81213791308E+01  0.11428192354E+03  0.17464260475E+03  0.93333709208E+02 0.  0.
         23    2    1    2    0    0 -0.93072784820E+02  0.81213791308E+01  0.25170357849E+03  0.28374377497E+03  0.91800535618E+02 0.  0.
          5    1    4    4  502    0 -0.97002926733E+02 -0.21790918856E+02  0.17745110381E+03  0.20345858591E+03  0.47000000000E+01 0. -1.
         -5    1    4    4    0  502  0.39301419131E+01  0.29912297987E+02  0.74252474680E+02  0.80285189060E+02  0.47000000000E+01 0.  1.
          5    1    3    3  503    0  0.32851849215E+02 -0.17537681470E+02  0.10661577361E+03  0.11303020592E+03  0.47000000000E+01 0. -1.
         -5    1    3    3    0  503  0.60220935605E+02  0.94163023387E+01  0.76661499260E+01  0.61612398830E+02  0.47000000000E+01 0.  1.
<mgrwt>
<rscale>  0 0.13178878E+03</rscale>
<asrwt>0</asrwt>
<pdfrwt beam="1">  1        2 0.63413219E-01 0.13205939E+03</pdfrwt>
<pdfrwt beam="2">  1       -2 0.71077601E-02 0.13205939E+03</pdfrwt>
<totfact> 0.83580767E+03</totfact>
</mgrwt>
</event>
<event>
 8    1  0.6836165E-004  0.9434538E+02  0.7546771E-02  0.1292816E+00
         -1   -1    0    0    0  501 -0.00000000000E+00  0.00000000000E+00  0.19423770096E+03  0.19423770096E+03  0.00000000000E+00 0.  1.
          1   -1    0    0  501    0  0.00000000000E+00 -0.00000000000E+00 -0.50252982210E+02  0.50252982210E+02  0.00000000000E+00 0. -1.
         23    2    1    2    0    0  0.19653707726E+02 -0.17822297704E+02  0.35254983166E+02  0.10071725037E+03  0.90538103364E+02 0.  0.
         23    2    1    2    0    0 -0.19653707726E+02  0.17822297704E+02  0.10872973558E+03  0.14377343280E+03  0.90248224672E+02 0.  0.
          5    1    4    4  502    0  0.20398162912E+02 -0.55229149623E+01 -0.37980269509E+01  0.21979596188E+02  0.47000000000E+01 0. -1.
         -5    1    4    4    0  502 -0.40051870638E+02  0.23345212666E+02  0.11252776253E+03  0.12179383661E+03  0.47000000000E+01 0.  1.
          5    1    3    3  503    0 -0.35821203044E+02 -0.65549558648E+01  0.20400387640E+02  0.42004664619E+02  0.47000000000E+01 0. -1.
         -5    1    3    3    0  503  0.55474910769E+02 -0.11267341839E+02  0.14854595526E+02  0.58712585748E+02  0.47000000000E+01 0.  1.
<mgrwt>
<rscale>  0 0.94275766E+02</rscale>
<asrwt>0</asrwt>
<pdfrwt beam="1">  1        1 0.77312281E-02 0.94345380E+02</pdfrwt>
<pdfrwt beam="2">  1       -1 0.29882723E-01 0.94345380E+02</pdfrwt>
<totfact> 0.85581070E+03</totfact>
</mgrwt>
</event>
<event>
 8    1  0.6836165E-004  0.1102231E+03  0.7546771E-02  0.1262581E+00
         -1   -1    0    0    0  501 -0.00000000000E+00  0.00000000000E+00  0.14792573323E+02  0.14792573323E+02  0.00000000000E+00 0.  1.
          1   -1    0    0  501    0  0.00000000000E+00 -0.00000000000E+00 -0.81802865197E+03  0.81802865197E+03  0.00000000000E+00 0. -1.
         23    2    1    2    0    0  0.96750270531E+01  0.61931016616E+02 -0.32537707453E+03  0.34353949060E+03  0.90664678913E+02 0.  0.
         23    2    1    2    0    0 -0.96750270531E+01 -0.61931016616E+02 -0.47785900412E+03  0.48928173470E+03  0.84370202824E+02 0.  0.
          5    1    4    4  502    0  0.89506113584E+01 -0.74621094159E+02 -0.27510982750E+03  0.28522960633E+03  0.47000000000E+01 0. -1.
         -5    1    4    4    0  502 -0.18625638412E+02  0.12690077543E+02 -0.20274917661E+03  0.20405212837E+03  0.47000000000E+01 0.  1.
          5    1    3    3  503    0 -0.60964452049E+01  0.37642643842E+02 -0.30594732682E+03  0.30835043711E+03  0.47000000000E+01 0. -1.
         -5    1    3    3    0  503  0.15771472258E+02  0.24288372774E+02 -0.19429747716E+02  0.35189053490E+02  0.47000000000E+01 0.  1.
<mgrwt>
<rscale>  0 0.10892111E+03</rscale>
<asrwt>0</asrwt>
<pdfrwt beam="1">  1        1 0.12585055E+00 0.11022314E+03</pdfrwt>
<pdfrwt beam="2">  1       -1 0.22757808E-02 0.11022314E+03</pdfrwt>
<totfact> 0.11913975E+04</totfact>
</mgrwt>
</event>
<event>
 8    1  0.6836165E-004  0.1090474E+03  0.7546771E-02  0.1262706E+00
         -1   -1    0    0    0  501 -0.00000000000E+00  0.00000000000E+00  0.64166082753E+02  0.64166082753E+02  0.00000000000E+00 0.  1.
          1   -1    0    0  501    0  0.00000000000E+00 -0.00000000000E+00 -0.18589440081E+03  0.18589440081E+03  0.00000000000E+00 0. -1.
         23    2    1    2    0    0  0.53115318066E+02 -0.24593854493E+02 -0.48509221729E+02  0.11935023782E+03  0.92006738785E+02 0.  0.
         23    2    1    2    0    0 -0.53115318066E+02  0.24593854493E+02 -0.73219096327E+02  0.13071024575E+03  0.91093564998E+02 0.  0.
          5    1    4    4  502    0 -0.11983191988E+02 -0.21771415842E+02  0.96927858215E+01  0.27085633369E+02  0.47000000000E+01 0. -1.
         -5    1    3    3    0  503 -0.77953833578E+01  0.26966044151E+02 -0.18585420590E+02  0.33991813682E+02  0.47000000000E+01 0.  1.
          5    1    3    3  503    0  0.60910701424E+02 -0.51559898644E+02 -0.29923801139E+02  0.85358424134E+02  0.47000000000E+01 0. -1.
         -5    1    4    4    0  502 -0.41132126078E+02  0.46365270335E+02 -0.82911882149E+02  0.10362461238E+03  0.47000000000E+01 0.  1.
<mgrwt>
<rscale>  0 0.10885454E+03</rscale>
<asrwt>0</asrwt>
<pdfrwt beam="1">  1        1 0.28599139E-01 0.10904740E+03</pdfrwt>
<pdfrwt beam="2">  1       -1 0.98717050E-02 0.10904740E+03</pdfrwt>
<totfact> 0.92819433E+03</totfact>
</mgrwt>
</event>
<event>
 8    1  0.6836165E-004  0.9372928E+02  0.7546771E-02  0.1294843E+00
         -1   -1    0    0    0  501 -0.00000000000E+00  0.00000000000E+00  0.12929873198E+03  0.12929873198E+03  0.00000000000E+00 0.  1.
          1   -1    0    0  501    0  0.00000000000E+00 -0.00000000000E+00 -0.11497752368E+03  0.11497752368E+03  0.00000000000E+00 0. -1.
         23    2    1    2    0    0 -0.16776412908E+02 -0.20027124032E+02  0.86111069239E+02  0.12728037713E+03  0.90014690075E+02 0.  0.
         23    2    1    2    0    0  0.16776412908E+02  0.20027124032E+02 -0.71789860941E+02  0.11699587853E+03  0.88609918921E+02 0.  0.
          5    1    3    3  502    0  0.21076579738E+02 -0.12412279312E+02 -0.74156595396E+01  0.25987860581E+02  0.47000000000E+01 0. -1.
         -5    1    3    3    0  502 -0.37852992646E+02 -0.76148447204E+01  0.93526728779E+02  0.10129251655E+03  0.47000000000E+01 0.  1.
          5    1    4    4  503    0  0.33166451543E+02 -0.26428601466E+02 -0.37338544912E+02  0.56698689751E+02  0.47000000000E+01 0. -1.
         -5    1    4    4    0  503 -0.16390038635E+02  0.46455725498E+02 -0.34451316029E+02  0.60297188775E+02  0.47000000000E+01 0.  1.
<mgrwt>
<rscale>  0 0.93390380E+02</rscale>
<asrwt>0</asrwt>
<pdfrwt beam="1">  1        1 0.17688850E-01 0.93729281E+02</pdfrwt>
<pdfrwt beam="2">  1       -1 0.19892113E-01 0.93729281E+02</pdfrwt>
<totfact> 0.56518452E+03</totfact>
</mgrwt>
</event>
<event>
 8    1  0.6836165E-004  0.9700575E+02  0.7546771E-02  0.1288133E+00
         -1   -1    0    0    0  501 -0.00000000000E+00  0.00000000000E+00  0.12109267556E+03  0.12109267556E+03  0.00000000000E+00 0.  1.
          1   -1    0    0  501    0  0.00000000000E+00 -0.00000000000E+00 -0.92166093025E+02  0.92166093025E+02  0.00000000000E+00 0. -1.
         23    2    1    2    0    0  0.91873133415E+01  0.59842761544E+00 -0.30462669475E+02  0.10167639813E+03  0.96567856262E+02 0.  0.
         23    2    1    2    0    0 -0.91873133415E+01 -0.59842761544E+00  0.59389252011E+02  0.11158237046E+03  0.94014771713E+02 0.  0.
          5    1    3    3  502    0 -0.32246671791E+02 -0.24879979234E+02  0.49919594668E+01  0.41302189622E+02  0.47000000000E+01 0. -1.
         -5    1    4    4    0  503 -0.26606505805E+02 -0.27156145463E+02  0.68258692007E+02  0.78273248444E+02  0.47000000000E+01 0.  1.
          5    1    4    4  503    0  0.17419192463E+02  0.26557717848E+02 -0.88694399963E+01  0.33309122012E+02  0.47000000000E+01 0. -1.
         -5    1    3    3    0  502  0.41433985132E+02  0.25478406849E+02 -0.35454628942E+02  0.60374208508E+02  0.47000000000E+01 0.  1.
<mgrwt>
<rscale>  0 0.96364100E+02</rscale>
<asrwt>0</asrwt>
<pdfrwt beam="1">  1        1 0.14179399E-01 0.97005751E+02</pdfrwt>
<pdfrwt beam="2">  1       -1 0.18629642E-01 0.97005751E+02</pdfrwt>
<totfact> 0.83387272E+03</totfact>
</mgrwt>
</event>
<event>
 8    1  0.6836165E-004  0.1024457E+03  0.7546771E-02  0.1275262E+00
         -1   -1    0    0    0  501 -0.00000000000E+00  0.00000000000E+00  0.36503003411E+02  0.36503003411E+02  0.00000000000E+00 0.  1.
          1   -1    0    0  501    0  0.00000000000E+00 -0.00000000000E+00 -0.30876516104E+03  0.30876516104E+03  0.00000000000E+00 0. -1.
         23    2    1    2    0    0  0.43942329506E+02 -0.18562788244E+02 -0.18160987744E+03  0.20851205457E+03  0.90662141407E+02 0.  0.
         23    2    1    2    0    0 -0.43942329506E+02  0.18562788244E+02 -0.90652280189E+02  0.13675610989E+03  0.90602937362E+02 0.  0.
          5    1    4    4  502    0 -0.69738220113E+02  0.41399732460E+01 -0.76327954116E+02  0.10357898099E+03  0.47000000000E+01 0. -1.
         -5    1    4    4    0  502  0.25795890607E+02  0.14422814998E+02 -0.14324326073E+02  0.33177128901E+02  0.47000000000E+01 0.  1.
          5    1    3    3  503    0 -0.11152838476E+02 -0.20005576726E+02 -0.13248673666E+03  0.13453413804E+03  0.47000000000E+01 0. -1.
         -5    1    3    3    0  503  0.55095167982E+02  0.14427884820E+01 -0.49123140778E+02  0.73977916525E+02  0.47000000000E+01 0.  1.
<mgrwt>
<rscale>  0 0.10243264E+03</rscale>
<asrwt>0</asrwt>
<pdfrwt beam="1">  1        1 0.47502332E-01 0.10244574E+03</pdfrwt>
<pdfrwt beam="2">  1       -1 0.56158467E-02 0.10244574E+03</pdfrwt>
<totfact> 0.11496136E+04</totfact>
</mgrwt>
</event>
<event>
 8    1  0.6836165E-004  0.1199368E+03  0.7546771E-02  0.1243251E+00
         -2   -1    0    0    0  501 -0.00000000000E+00  0.00000000000E+00  0.18017910073E+02  0.18017910073E+02  0.00000000000E+00 0.  1.
          2   -1    0    0  501    0  0.00000000000E+00 -0.00000000000E+00 -0.83197636227E+03  0.83197636227E+03  0.00000000000E+00 0. -1.
         23    2    1    2    0    0 -0.74886664202E+02  0.22897641532E+02 -0.32034308351E+03  0.34201694998E+03  0.90684003322E+02 0.  0.
         23    2    1    2    0    0  0.74886664202E+02 -0.22897641532E+02 -0.49361536869E+03  0.50797732236E+03  0.90843345200E+02 0.  0.
          5    1    3    3  502    0  0.20428660358E+02  0.96144683378E+01 -0.73612806632E+02  0.77140802859E+02  0.47000000000E+01 0. -1.
         -5    1    4    4    0  503  0.30214279037E+02 -0.49272376332E+02 -0.15723296035E+03  0.16758569016E+03  0.47000000000E+01 0.  1.
          5    1    4    4  503    0  0.44672385165E+02  0.26374734800E+02 -0.33638240834E+03  0.34039163220E+03  0.47000000000E+01 0. -1.
         -5    1    3    3    0  502 -0.95315324560E+02  0.13283173194E+02 -0.24673027688E+03  0.26487614712E+03  0.47000000000E+01 0.  1.
<mgrwt>
<rscale>  0 0.11990659E+03</rscale>
<asrwt>0</asrwt>
<pdfrwt beam="1">  1        2 0.12799634E+00 0.11993677E+03</pdfrwt>
<pdfrwt beam="2">  1       -2 0.27719868E-02 0.11993677E+03</pdfrwt>
<totfact> 0.15190000E+04</totfact>
</mgrwt>
</event>
<event>
 8    1  0.6836165E-004  0.1028509E+03  0.7546771E-02  0.1277844E+00
          2   -1    0    0  501    0  0.00000000000E+00  0.00000000000E+00  0.28779216374E+03  0.28779216374E+03  0.00000000000E+00 0. -1.
         -2   -1    0    0    0  501 -0.00000000000E+00 -0.00000000000E+00 -0.35998633319E+02  0.35998633319E+02  0.00000000000E+00 0.  1.
         23    2    1    2    0    0  0.44466707782E+02  0.10146563340E+02  0.96362819246E+02  0.14094006826E+03  0.92184971986E+02 0.  0.
         23    2    1    2    0    0 -0.44466707782E+02 -0.10146563340E+02  0.15543071118E+03  0.18285072880E+03  0.84825952379E+02 0.  0.
          5    1    4    4  502    0 -0.55283162516E+02  0.23670754316E+02  0.10277569104E+03  0.11916990114E+03  0.47000000000E+01 0. -1.
         -5    1    3    3    0  503  0.43188120726E+02 -0.35683067242E+02  0.45698674684E+02  0.72449664785E+02  0.47000000000E+01 0.  1.
          5    1    3    3  503    0  0.12785870559E+01  0.45829630582E+02  0.50664144562E+02  0.68490403476E+02  0.47000000000E+01 0. -1.
         -5    1    4    4    0  502  0.10816454735E+02 -0.33817317655E+02  0.52655020137E+02  0.63680827664E+02  0.47000000000E+01 0.  1.
<mgrwt>
<rscale>  0 0.10117526E+03</rscale>
<asrwt>0</asrwt>
<pdfrwt beam="1">  1        2 0.44275716E-01 0.10285091E+03</pdfrwt>
<pdfrwt beam="2">  1       -2 0.55382515E-02 0.10285091E+03</pdfrwt>
<totfact> 0.17465263E+04</totfact>
</mgrwt>
</event>
<event>
 8    1  0.6836165E-004  0.9437023E+02  0.7546771E-02  0.1293734E+00
          4   -1    0    0  501    0  0.00000000000E+00  0.00000000000E+00  0.33669183377E+02  0.33669183377E+02  0.00000000000E+00 0. -1.
         -4   -1    0    0    0  501 -0.00000000000E+00 -0.00000000000E+00 -0.33846655889E+03  0.33846655889E+03  0.00000000000E+00 0.  1.
         23    2    1    2    0    0  0.36174774423E+01  0.53002514003E+01 -0.63481272952E+02  0.11373483014E+03  0.94151796388E+02 0.  0.
         23    2    1    2    0    0 -0.36174774423E+01 -0.53002514003E+01 -0.24131610256E+03  0.25840091213E+03  0.92175871166E+02 0.  0.
          5    1    4    4  502    0  0.15991935886E+02 -0.42563797727E+02 -0.85807613802E+02  0.97223739266E+02  0.47000000000E+01 0. -1.
         -5    1    4    4    0  502 -0.19609413329E+02  0.37263546326E+02 -0.15550848876E+03  0.16117717286E+03  0.47000000000E+01 0.  1.
          5    1    3    3  503    0  0.77424113147E+00 -0.24850462486E+02  0.15046504500E+02  0.29438618052E+02  0.47000000000E+01 0. -1.
         -5    1    3    3    0  503  0.28432363108E+01  0.30150713886E+02 -0.78527777453E+02  0.84296212087E+02  0.47000000000E+01 0.  1.
<mgrwt>
<rscale>  0 0.93873505E+02</rscale>
<asrwt>0</asrwt>
<pdfrwt beam="1">  1        4 0.51798741E-02 0.94370226E+02</pdfrwt>
<pdfrwt beam="2">  1       -4 0.52071781E-01 0.94370226E+02</pdfrwt>
<totfact> 0.12203828E+03</totfact>
</mgrwt>
</event>
<event>
 8    1  0.6836165E-004  0.9565551E+02  0.7546771E-02  0.1290350E+00
         -2   -1    0    0    0  501 -0.00000000000E+00  0.00000000000E+00  0.33931682972E+02  0.33931682972E+02  0.00000000000E+00 0.  1.
          2   -1    0    0  501    0  0.00000000000E+00 -0.00000000000E+00 -0.44128637625E+03  0.44128637625E+03  0.00000000000E+00 0. -1.
         23    2    1    2    0    0  0.24421817686E+02  0.36416073939E+01 -0.53370480786E+02  0.10853727305E+03  0.91226339055E+02 0.  0.
         23    2    1    2    0    0 -0.24421817686E+02 -0.36416073939E+01 -0.35398421249E+03  0.36668078618E+03  0.92413688237E+02 0.  0.
          5    1    4    4  502    0 -0.46177551238E+02 -0.25266380866E+02 -0.29819203156E+03  0.30283879198E+03  0.47000000000E+01 0. -1.
         -5    1    3    3    0  503  0.14121066063E+02 -0.28537880344E+02  0.12363732863E+02  0.34478500715E+02  0.47000000000E+01 0.  1.
          5    1    3    3  503    0  0.10300751624E+02  0.32179487738E+02 -0.65734213649E+02  0.74058772330E+02  0.47000000000E+01 0. -1.
         -5    1    4    4    0  502  0.21755733552E+02  0.21624773472E+02 -0.55792180934E+02  0.63841994200E+02  0.47000000000E+01 0.  1.
<mgrwt>
<rscale>  0 0.95367558E+02</rscale>
<asrwt>0</asrwt>
<pdfrwt beam="1">  1        2 0.67890210E-01 0.95655508E+02</pdfrwt>
<pdfrwt beam="2">  1       -2 0.52202591E-02 0.95655508E+02</pdfrwt>
<totfact> 0.12084702E+04</totfact>
</mgrwt>
</event>
<event>
 8    1  0.6836165E-004  0.1205063E+03  0.7546771E-02  0.1244060E+00
         -1   -1    0    0    0  501 -0.00000000000E+00  0.00000000000E+00  0.26467409773E+02  0.26467409773E+02  0.00000000000E+00 0.  1.
          1   -1    0    0  501    0  0.00000000000E+00 -0.00000000000E+00 -0.85646417887E+03  0.85646417887E+03  0.00000000000E+00 0. -1.
         23    2    1    2    0    0 -0.26572231646E+01 -0.71644856658E+02 -0.13752100218E+03  0.18004862543E+03  0.91462752844E+02 0.  0.
         23    2    1    2    0    0  0.26572231646E+01  0.71644856658E+02 -0.69247576692E+03  0.70288296322E+03  0.96859309757E+02 0.  0.
          5    1    4    4  502    0  0.46621444781E+02  0.31453210283E+02 -0.43025847533E+03  0.43394390092E+03  0.47000000000E+01 0. -1.
         -5    1    3    3    0  503 -0.31233154300E+02 -0.79897376405E+02 -0.97251984467E+02  0.12976570875E+03  0.47000000000E+01 0.  1.
          5    1    3    3  503    0  0.28575931135E+02  0.82525197477E+01 -0.40269017709E+02  0.50282916678E+02  0.47000000000E+01 0. -1.
         -5    1    4    4    0  502 -0.43964221616E+02  0.40191646374E+02 -0.26221729159E+03  0.26893906230E+03  0.47000000000E+01 0.  1.
<mgrwt>
<rscale>  0 0.11941836E+03</rscale>
<asrwt>0</asrwt>
<pdfrwt beam="1">  1        1 0.13176373E+00 0.12050632E+03</pdfrwt>
<pdfrwt beam="2">  1       -1 0.40719088E-02 0.12050632E+03</pdfrwt>
<totfact> 0.48004168E+03</totfact>
</mgrwt>
</event>
<event>
 8    1  0.6836165E-004  0.1509468E+03  0.7546771E-02  0.1200532E+00
          4   -1    0    0  501    0  0.00000000000E+00  0.00000000000E+00  0.34936409235E+03  0.34936409235E+03  0.00000000000E+00 0. -1.
         -4   -1    0    0    0  501 -0.00000000000E+00 -0.00000000000E+00 -0.11233985540E+03  0.11233985540E+03  0.00000000000E+00 0.  1.
         23    2    1    2    0    0 -0.87279934423E+02  0.75252128168E+02 -0.32766128333E+02  0.15446213064E+03  0.97489798895E+02 0.  0.
         23    2    1    2    0    0  0.87279934423E+02 -0.75252128168E+02  0.26979036529E+03  0.30724181711E+03  0.91268960941E+02 0.  0.
          5    1    3    3  502    0 -0.75246424045E+01  0.27409407615E+02  0.30442387489E+02  0.41913301291E+02  0.47000000000E+01 0. -1.
         -5    1    3    3    0  502 -0.79755292018E+02  0.47842720554E+02 -0.63208515822E+02  0.11254882935E+03  0.47000000000E+01 0.  1.
          5    1    4    4  503    0  0.83312697538E+02 -0.14546147572E+02  0.17644684156E+03  0.19572474007E+03  0.47000000000E+01 0. -1.
         -5    1    4    4    0  503  0.39672368853E+01 -0.60705980596E+02  0.93343523733E+02  0.11151707704E+03  0.47000000000E+01 0.  1.
<mgrwt>
<rscale>  0 0.14995173E+03</rscale>
<asrwt>0</asrwt>
<pdfrwt beam="1">  1        4 0.53748322E-01 0.15094678E+03</pdfrwt>
<pdfrwt beam="2">  1       -4 0.17283055E-01 0.15094678E+03</pdfrwt>
<totfact> 0.16679398E+02</totfact>
</mgrwt>
</event>
<event>
 8    1  0.6836165E-004  0.1701359E+03  0.7546771E-02  0.1177980E+00
          2   -1    0    0  501    0  0.00000000000E+00  0.00000000000E+00  0.72238957442E+03  0.72238957442E+03  0.00000000000E+00 0. -1.
         -2   -1    0    0    0  501 -0.00000000000E+00 -0.00000000000E+00 -0.86735853092E+02  0.86735853092E+02  0.00000000000E+00 0.  1.
         23    2    1    2    0    0 -0.31146765598E+01 -0.14309764745E+03  0.20749032210E+02  0.17139647976E+03  0.91976045896E+02 0.  0.
         23    2    1    2    0    0  0.31146765598E+01  0.14309764745E+03  0.61490468912E+03  0.63772894775E+03  0.90021087458E+02 0.  0.
          5    1    4    4  502    0  0.56906449115E+01  0.53157464115E+02  0.41502567414E+03  0.41848118192E+03  0.47000000000E+01 0. -1.
         -5    1    3    3    0  503 -0.26617361452E+02 -0.67713932314E+02 -0.28426292639E+02  0.78254742178E+02  0.47000000000E+01 0.  1.
          5    1    3    3  503    0  0.23502684892E+02 -0.75383715140E+02  0.49175324849E+02  0.93141737580E+02  0.47000000000E+01 0. -1.
         -5    1    4    4    0  502 -0.25759683517E+01  0.89940183340E+02  0.19987901498E+03  0.21924776583E+03  0.47000000000E+01 0.  1.
<mgrwt>
<rscale>  0 0.16987310E+03</rscale>
<asrwt>0</asrwt>
<pdfrwt beam="1">  1        2 0.11113685E+00 0.17013592E+03</pdfrwt>
<pdfrwt beam="2">  1       -2 0.13343978E-01 0.17013592E+03</pdfrwt>
<totfact> 0.16666175E+03</totfact>
</mgrwt>
</event>
<event>
 8    1  0.6836165E-004  0.1510665E+03  0.7546771E-02  0.1199198E+00
          2   -1    0    0  501    0  0.00000000000E+00  0.00000000000E+00  0.41055205389E+03  0.41055205389E+03  0.00000000000E+00 0. -1.
         -2   -1    0    0    0  501 -0.00000000000E+00 -0.00000000000E+00 -0.57443315145E+02  0.57443315145E+02  0.00000000000E+00 0.  1.
         23    2    1    2    0    0  0.11418222355E+03 -0.37782830488E+02  0.13414043489E+03  0.20202658888E+03  0.91410961532E+02 0.  0.
         23    2    1    2    0    0 -0.11418222355E+03  0.37782830488E+02  0.21896830386E+03  0.26596878015E+03  0.91253227168E+02 0.  0.
          5    1    4    4  502    0 -0.10454152400E+03  0.63016323977E+02  0.16349969803E+03  0.20409367600E+03  0.47000000000E+01 0. -1.
         -5    1    4    4    0  502 -0.96406995469E+01 -0.25233493489E+02  0.55468605830E+02  0.61875104154E+02  0.47000000000E+01 0.  1.
          5    1    3    3  503    0  0.67689058913E+02 -0.42315320592E+02  0.13284930970E+03  0.15505942132E+03  0.47000000000E+01 0. -1.
         -5    1    3    3    0  503  0.46493164637E+02  0.45324901039E+01  0.12911251943E+01  0.46967167562E+02  0.47000000000E+01 0.  1.
<mgrwt>
<rscale>  0 0.15104264E+03</rscale>
<asrwt>0</asrwt>
<pdfrwt beam="1">  1        2 0.63161853E-01 0.15106650E+03</pdfrwt>
<pdfrwt beam="2">  1       -2 0.88374333E-02 0.15106650E+03</pdfrwt>
<totfact> 0.60451134E+03</totfact>
</mgrwt>
</event>
<event>
 8    1  0.6836165E-004  0.9598856E+02  0.7546771E-02  0.1289791E+00
          2   -1    0    0  501    0  0.00000000000E+00  0.00000000000E+00  0.52433321532E+02  0.52433321532E+02  0.00000000000E+00 0. -1.
         -2   -1    0    0    0  501 -0.00000000000E+00 -0.00000000000E+00 -0.17860060592E+03  0.17860060592E+03  0.00000000000E+00 0.  1.
         23    2    1    2    0    0  0.27658421661E+02 -0.82737159201E+01 -0.83950544129E+02  0.12752058024E+03  0.91544316379E+02 0.  0.
         23    2    1    2    0    0 -0.27658421661E+02  0.82737159201E+01 -0.42216740263E+02  0.10351334722E+03  0.89996206751E+02 0.  0.
          5    1    4    4  502    0  0.14135699246E+02 -0.25471145734E+02 -0.39789807574E+02  0.49537016916E+02  0.47000000000E+01 0. -1.
         -5    1    3    3    0  503 -0.25324604519E+02  0.22669923824E+02 -0.33377077868E+02  0.47868364995E+02  0.47000000000E+01 0.  1.
          5    1    3    3  503    0  0.52983026180E+02 -0.30943639744E+02 -0.50573466261E+02  0.79652215245E+02  0.47000000000E+01 0. -1.
         -5    1    4    4    0  502 -0.41794120907E+02  0.33744861654E+02 -0.24269326896E+01  0.53976330301E+02  0.47000000000E+01 0.  1.
<mgrwt>
<rscale>  0 0.95617598E+02</rscale>
<asrwt>0</asrwt>
<pdfrwt beam="1">  1        2 0.80666649E-02 0.95988565E+02</pdfrwt>
<pdfrwt beam="2">  1       -2 0.27477016E-01 0.95988565E+02</pdfrwt>
<totfact> 0.91833286E+03</totfact>
</mgrwt>
</event>
<event>
 8    1  0.6836165E-004  0.1048902E+03  0.7546771E-02  0.1275976E+00
         -1   -1    0    0    0  501 -0.00000000000E+00  0.00000000000E+00  0.66064139422E+03  0.66064139422E+03  0.00000000000E+00 0.  1.
          1   -1    0    0  501    0  0.00000000000E+00 -0.00000000000E+00 -0.11765501138E+03  0.11765501138E+03  0.00000000000E+00 0. -1.
         23    2    1    2    0    0  0.43808185024E+01  0.22570111812E+02  0.63682282504E+03  0.64540318687E+03  0.10233944306E+03 0.  0.
         23    2    1    2    0    0 -0.43808185024E+01 -0.22570111812E+02 -0.93836442209E+02  0.13289321873E+03  0.91250907832E+02 0.  0.
          5    1    3    3  502    0  0.26693290966E+02  0.57271032644E+02  0.38098787898E+03  0.38622060651E+03  0.47000000000E+01 0. -1.
         -5    1    3    3    0  502 -0.22312472464E+02 -0.34700920832E+02  0.25583494607E+03  0.25918258036E+03  0.47000000000E+01 0.  1.
          5    1    4    4  503    0  0.23084796293E+02 -0.47295902026E+02 -0.73284967081E+02  0.90347034087E+02  0.47000000000E+01 0. -1.
         -5    1    4    4    0  503 -0.27465614795E+02  0.24725790214E+02 -0.20551475128E+02  0.42546184643E+02  0.47000000000E+01 0.  1.
<mgrwt>
<rscale>  0 0.10208264E+03</rscale>
<asrwt>0</asrwt>
<pdfrwt beam="1">  1        1 0.18100771E-01 0.10489024E+03</pdfrwt>
<pdfrwt beam="2">  1       -1 0.10163714E+00 0.10489024E+03</pdfrwt>
<totfact> 0.28662035E+02</totfact>
</mgrwt>
</event>
<event>
 8    1  0.6836165E-004  0.9142404E+02  0.7546771E-02  0.1309867E+00
         -3   -1    0    0    0  501 -0.00000000000E+00  0.00000000000E+00  0.25196327195E+02  0.25196327195E+02  0.00000000000E+00 0.  1.
          3   -1    0    0  501    0  0.00000000000E+00 -0.00000000000E+00 -0.27945251871E+03  0.27945251871E+03  0.00000000000E+00 0. -1.
         23    2    1    2    0    0  0.84432464382E+01 -0.96422851212E+01 -0.15441564614E+03  0.17945067947E+03  0.90521226876E+02 0.  0.
         23    2    1    2    0    0 -0.84432464382E+01  0.96422851212E+01 -0.99840545375E+02  0.12519816644E+03  0.74445848145E+02 0.  0.
          5    1    4    4  502    0 -0.26657608001E+02  0.19835733633E+02 -0.98158866302E+02  0.10373686629E+03  0.47000000000E+01 0. -1.
         -5    1    4    4    0  502  0.18214361563E+02 -0.10193448512E+02 -0.16816790727E+01  0.21461300152E+02  0.47000000000E+01 0.  1.
          5    1    3    3  503    0  0.46324243093E+00  0.31373649915E+02 -0.12282741309E+03  0.12685891340E+03  0.47000000000E+01 0. -1.
         -5    1    3    3    0  503  0.79800040073E+01 -0.41015935036E+02 -0.31588233051E+02  0.52591766067E+02  0.47000000000E+01 0.  1.
<mgrwt>
<rscale>  0 0.87164775E+02</rscale>
<asrwt>0</asrwt>
<pdfrwt beam="1">  1        3 0.42992694E-01 0.91424037E+02</pdfrwt>
<pdfrwt beam="2">  1       -3 0.38763581E-02 0.91424037E+02</pdfrwt>
<totfact> 0.38737560E+03</totfact>
</mgrwt>
</event>
<event>
 8    1  0.6836165E-004  0.9931501E+02  0.7546771E-02  0.1292646E+00
          1   -1    0    0  501    0  0.00000000000E+00  0.00000000000E+00  0.28462444070E+03  0.28462444070E+03  0.00000000000E+00 0. -1.
         -1   -1    0    0    0  501 -0.00000000000E+00 -0.00000000000E+00 -0.34151447820E+02  0.34151447820E+02  0.00000000000E+00 0.  1.
         23    2    1    2    0    0 -0.10944219701E+02 -0.38770076744E+02  0.71519330223E+02  0.12238662251E+03  0.90777618271E+02 0.  0.
         23    2    1    2    0    0  0.10944219701E+02  0.38770076744E+02  0.17895366266E+03  0.19638926601E+03  0.70152944548E+02 0.  0.
          5    1    3    3  502    0  0.29787893242E+02 -0.84291435129E+01  0.63435302929E+02  0.70742467457E+02  0.47000000000E+01 0. -1.
         -5    1    4    4    0  503 -0.27888693767E+02  0.52700574254E+01  0.76242968074E+02  0.81490078697E+02  0.47000000000E+01 0.  1.
          5    1    4    4  503    0  0.38832913468E+02  0.33500019319E+02  0.10271069459E+03  0.11489918731E+03  0.47000000000E+01 0. -1.
         -5    1    3    3    0  502 -0.40732112943E+02 -0.30340933231E+02  0.80840272932E+01  0.51644155056E+02  0.47000000000E+01 0.  1.
<mgrwt>
<rscale>  0 0.94350523E+02</rscale>
<asrwt>0</asrwt>
<pdfrwt beam="1">  1        1 0.43788374E-01 0.99315008E+02</pdfrwt>
<pdfrwt beam="2">  1       -1 0.52540691E-02 0.99315008E+02</pdfrwt>
<totfact> 0.13970757E+04</totfact>
</mgrwt>
</event>
<event>
 8    1  0.6836165E-004  0.2651366E+03  0.7546771E-02  0.1104106E+00
         -2   -1    0    0    0  501 -0.00000000000E+00  0.00000000000E+00  0.74332418714E+02  0.74332418714E+02  0.00000000000E+00 0.  1.
          2   -1    0    0  501    0  0.00000000000E+00 -0.00000000000E+00 -0.10765450233E+04  0.10765450233E+04  0.00000000000E+00 0. -1.
         23    2    1    2    0    0  0.11644316443E+03  0.21990087147E+03 -0.70195734073E+03  0.75036093157E+03  0.91553348376E+02 0.  0.
         23    2    1    2    0    0 -0.11644316443E+03 -0.21990087147E+03 -0.30025526389E+03  0.40051651048E+03  0.91350138809E+02 0.  0.
          5    1    3    3  502    0  0.93847201129E+02  0.87214522687E+02 -0.29365461074E+03  0.32041970997E+03  0.47000000000E+01 0. -1.
         -5    1    4    4    0  503 -0.24761793400E+02 -0.13778399795E+03 -0.13621156736E+03  0.19537977783E+03  0.47000000000E+01 0.  1.
          5    1    4    4  503    0 -0.91681371030E+02 -0.82116873516E+02 -0.16404369653E+03  0.20513673265E+03  0.47000000000E+01 0. -1.
         -5    1    3    3    0  502  0.22595963300E+02  0.13268634878E+03 -0.40830272999E+03  0.42994122160E+03  0.47000000000E+01 0.  1.
<mgrwt>
<rscale>  0 0.26511908E+03</rscale>
<asrwt>0</asrwt>
<pdfrwt beam="1">  1        2 0.16562231E+00 0.26513661E+03</pdfrwt>
<pdfrwt beam="2">  1       -2 0.11435757E-01 0.26513661E+03</pdfrwt>
<totfact> 0.12625200E+03</totfact>
</mgrwt>
</event>
<event>
 8    1  0.6836165E-004  0.9602735E+02  0.7546771E-02  0.1291829E+00
         -1   -1    0    0    0  501 -0.00000000000E+00  0.00000000000E+00  0.17566713141E+02  0.17566713141E+02  0.00000000000E+00 0.  1.
          1   -1    0    0  501    0  0.00000000000E+00 -0.00000000000E+00 -0.50858714953E+03  0.50858714953E+03  0.00000000000E+00 0. -1.
         23    2    1    2    0    0  0.27201138809E+02 -0.90624345124E+01 -0.29164994281E+03  0.30705201841E+03  0.91647275985E+02 0.  0.
         23    2    1    2    0    0 -0.27201138809E+02  0.90624345124E+01 -0.19937049358E+03  0.21910184427E+03  0.86226415779E+02 0.  0.
          5    1    4    4  502    0  0.23707273012E+02  0.19681648372E+01 -0.13212284753E+03  0.13432961440E+03  0.47000000000E+01 0. -1.
         -5    1    3    3    0  503 -0.32846718004E+02  0.58763268287E+01 -0.91823642522E+02  0.97811601697E+02  0.47000000000E+01 0.  1.
          5    1    3    3  503    0  0.60047856813E+02 -0.14938761341E+02 -0.19982630029E+03  0.20924041671E+03  0.47000000000E+01 0. -1.
         -5    1    4    4    0  502 -0.50908411821E+02  0.70942696752E+01 -0.67247646054E+02  0.84772229864E+02  0.47000000000E+01 0.  1.
<mgrwt>
<rscale>  0 0.94710727E+02</rscale>
<asrwt>0</asrwt>
<pdfrwt beam="1">  1        1 0.78244171E-01 0.96027355E+02</pdfrwt>
<pdfrwt beam="2">  1       -1 0.27025715E-02 0.96027355E+02</pdfrwt>
<totfact> 0.17751324E+04</totfact>
</mgrwt>
</event>
<event>
 8    1  0.8581607E-004  0.1178560E+03  0.7546771E-02  0.1251331E+00
         -1   -1    0    0    0  501 -0.00000000000E+00  0.00000000000E+00  0.47011190329E+02  0.47011190329E+02  0.00000000000E+00 0.  1.
          1   -1    0    0  501    0  0.00000000000E+00 -0.00000000000E+00 -0.46117967225E+03  0.46117967225E+03  0.00000000000E+00 0. -1.
         23    2    1    2    0    0 -0.42844355801E+01  0.54856395756E+02 -0.36504129636E+03  0.38050563867E+03  0.92205273562E+02 0.  0.
         23    2    1    2    0    0  0.42844355801E+01 -0.54856395756E+02 -0.49127185559E+02  0.12768522390E+03  0.10422310444E+03 0.  0.
          5    1    3    3  502    0 -0.30094191433E+02  0.69648473098E+02 -0.28571046762E+03  0.29565035340E+03  0.47000000000E+01 0. -1.
         -5    1    4    4    0  503  0.53969904942E+02 -0.31344272596E+02 -0.23495136381E+02  0.66853014125E+02  0.47000000000E+01 0.  1.
          5    1    4    4  503    0 -0.49685469362E+02 -0.23512123160E+02 -0.25632049178E+02  0.60832209776E+02  0.47000000000E+01 0. -1.
         -5    1    3    3    0  502  0.25809755853E+02 -0.14792077342E+02 -0.79330828741E+02  0.84855285269E+02  0.47000000000E+01 0.  1.
<mgrwt>
<rscale>  0 0.11514354E+03</rscale>
<asrwt>0</asrwt>
<pdfrwt beam="1">  1        1 0.70950720E-01 0.11785600E+03</pdfrwt>
<pdfrwt beam="2">  1       -1 0.72324907E-02 0.11785600E+03</pdfrwt>
<totfact> 0.48343351E+03</totfact>
</mgrwt>
</event>
<event>
 8    1  0.6836165E-004  0.1751813E+03  0.7546771E-02  0.1172930E+00
          4   -1    0    0  501    0  0.00000000000E+00  0.00000000000E+00  0.37923561385E+03  0.37923561385E+03  0.00000000000E+00 0. -1.
         -4   -1    0    0    0  501 -0.00000000000E+00 -0.00000000000E+00 -0.85643092957E+02  0.85643092957E+02  0.00000000000E+00 0.  1.
         23    2    1    2    0    0 -0.11364044539E+02  0.14769790135E+03  0.87738837802E+02  0.19457477979E+03  0.90650039718E+02 0.  0.
         23    2    1    2    0    0  0.11364044539E+02 -0.14769790135E+03  0.20585368309E+03  0.27030392702E+03  0.93512900419E+02 0.  0.
          5    1    3    3  502    0 -0.42666374349E+02  0.49296356874E+02  0.12068589364E+02  0.66470227549E+02  0.47000000000E+01 0. -1.
         -5    1    3    3    0  502  0.31302329810E+02  0.98401544478E+02  0.75670248439E+02  0.12810455225E+03  0.47000000000E+01 0.  1.
          5    1    4    4  503    0 -0.19108898706E+02 -0.13860829157E+03  0.18494426016E+03  0.23195662928E+03  0.47000000000E+01 0. -1.
         -5    1    4    4    0  503  0.30472943246E+02 -0.90896097794E+01  0.20909422936E+02  0.38347297734E+02  0.47000000000E+01 0.  1.
<mgrwt>
<rscale>  0 0.17480220E+03</rscale>
<asrwt>0</asrwt>
<pdfrwt beam="1">  1        4 0.58343940E-01 0.17518126E+03</pdfrwt>
<pdfrwt beam="2">  1       -4 0.13175861E-01 0.17518126E+03</pdfrwt>
<totfact> 0.23179101E+02</totfact>
</mgrwt>
</event>
<event>
 7    1  0.6836165E-004  0.1500542E+03  0.7546771E-02  0.1219549E+00
         -1   -1    0    0    0  501 -0.00000000000E+00  0.00000000000E+00  0.21898164061E+03  0.21898164061E+03  0.00000000000E+00 0.  1.
          1   -1    0    0  501    0  0.00000000000E+00 -0.00000000000E+00 -0.13387631736E+03  0.13387631736E+03  0.00000000000E+00 0. -1.
         23    2    1    2    0    0 -0.14240136921E+02  0.35218729894E+02 -0.81402482284E+02  0.12871267068E+03  0.92181598141E+02 0.  0.
          5    1    3    3  502    0  0.34973456806E+02  0.32336415788E+02 -0.26245546372E+02  0.54586675767E+02  0.47000000000E+01 0. -1.
         -5    1    1    2    0  503  0.21197029993E+02 -0.85724916830E+02  0.14223385279E+03  0.16748323595E+03  0.47000000000E+01 0.  1.
          5    1    1    2  503    0 -0.69568930718E+01  0.50506186935E+02  0.24273952750E+02  0.56662051340E+02  0.47000000000E+01 0. -1.
         -5    1    3    3    0  502 -0.49213593727E+02  0.28823141058E+01 -0.55156935912E+02  0.74125994910E+02  0.47000000000E+01 0.  1.
<mgrwt>
<rscale>  0 0.13547607E+03</rscale>
<asrwt>0</asrwt>
<pdfrwt beam="1">  1        1 0.20596356E-01 0.15005419E+03</pdfrwt>
<pdfrwt beam="2">  1       -1 0.33689483E-01 0.15005419E+03</pdfrwt>
<totfact> 0.20100151E+03</totfact>
</mgrwt>
</event>
<event>
 8    1  0.6836165E-004  0.9807121E+02  0.7546771E-02  0.1284926E+00
         -1   -1    0    0    0  501 -0.00000000000E+00  0.00000000000E+00  0.28317064414E+02  0.28317064414E+02  0.00000000000E+00 0.  1.
          1   -1    0    0  501    0  0.00000000000E+00 -0.00000000000E+00 -0.33687266672E+03  0.33687266672E+03  0.00000000000E+00 0. -1.
         23    2    1    2    0    0 -0.32386374950E+02  0.79067983318E+01 -0.14620553255E+03  0.17551762754E+03  0.91208470477E+02 0.  0.
         23    2    1    2    0    0  0.32386374950E+02 -0.79067983318E+01 -0.16235006975E+03  0.18967210359E+03  0.92231052200E+02 0.  0.
          5    1    3    3  502    0  0.32191888042E+01 -0.21851925200E+02 -0.56336590248E+00  0.22589315896E+02  0.47000000000E+01 0. -1.
         -5    1    4    4    0  503  0.44733686772E+02  0.32519637502E+02 -0.94473481014E+02  0.10957170333E+03  0.47000000000E+01 0.  1.
          5    1    4    4  503    0 -0.12347311822E+02 -0.40426435834E+02 -0.67876588735E+02  0.80100400260E+02  0.47000000000E+01 0. -1.
         -5    1    3    3    0  502 -0.35605563754E+02  0.29758723531E+02 -0.14564216665E+03  0.15292831165E+03  0.47000000000E+01 0.  1.
<mgrwt>
<rscale>  0 0.97830053E+02</rscale>
<asrwt>0</asrwt>
<pdfrwt beam="1">  1        1 0.51826567E-01 0.98071207E+02</pdfrwt>
<pdfrwt beam="2">  1       -1 0.43564712E-02 0.98071207E+02</pdfrwt>
<totfact> 0.14931394E+04</totfact>
</mgrwt>
</event>
<event>
 8    1  0.6836165E-004  0.1074703E+03  0.7546771E-02  0.1266856E+00
         -1   -1    0    0    0  501 -0.00000000000E+00  0.00000000000E+00  0.22142425052E+03  0.22142425052E+03  0.00000000000E+00 0.  1.
          1   -1    0    0  501    0  0.00000000000E+00 -0.00000000000E+00 -0.55674171171E+02  0.55674171171E+02  0.00000000000E+00 0. -1.
         23    2    1    2    0    0  0.17287836039E+02  0.44655682517E+02  0.40111185378E+02  0.11176545740E+03  0.92680154397E+02 0.  0.
         23    2    1    2    0    0 -0.17287836039E+02 -0.44655682517E+02  0.12563889397E+03  0.16533296429E+03  0.96212567512E+02 0.  0.
          5    1    3    3  502    0  0.36577812298E+02 -0.16102050673E+02  0.18521033742E+02  0.44298206276E+02  0.47000000000E+01 0. -1.
         -5    1    4    4    0  503 -0.28601124811E+02  0.22976376579E+02  0.30367931748E+02  0.47856446794E+02  0.47000000000E+01 0.  1.
          5    1    4    4  503    0  0.11313288771E+02 -0.67632059096E+02  0.95270962220E+02  0.11747651749E+03  0.47000000000E+01 0. -1.
         -5    1    3    3    0  502 -0.19289976259E+02  0.60757733190E+02  0.21590151636E+02  0.67467251123E+02  0.47000000000E+01 0.  1.
<mgrwt>
<rscale>  0 0.10667383E+03</rscale>
<asrwt>0</asrwt>
<pdfrwt beam="1">  1        1 0.85652572E-02 0.10747026E+03</pdfrwt>
<pdfrwt beam="2">  1       -1 0.34065269E-01 0.10747026E+03</pdfrwt>
<totfact> 0.60602447E+03</totfact>
</mgrwt>
</event>
<event>
 8    1  0.6836165E-004  0.1032288E+03  0.7546771E-02  0.1275030E+00
         -1   -1    0    0    0  501 -0.00000000000E+00  0.00000000000E+00  0.95331111851E+02  0.95331111851E+02  0.00000000000E+00 0.  1.
          1   -1    0    0  501    0  0.00000000000E+00 -0.00000000000E+00 -0.11108675705E+03  0.11108675705E+03  0.00000000000E+00 0. -1.
         23    2    1    2    0    0  0.43465034670E+02  0.23642779467E+02 -0.22341800081E+02  0.10297914591E+03  0.87506332356E+02 0.  0.
         23    2    1    2    0    0 -0.43465034670E+02 -0.23642779467E+02  0.65861548863E+01  0.10343872298E+03  0.90598022697E+02 0.  0.
          5    1    4    4  502    0  0.10405496074E+02 -0.20493252751E+02 -0.29992851680E+02  0.38077669424E+02  0.47000000000E+01 0. -1.
         -5    1    3    3    0  503 -0.24999444077E+02  0.10161943888E+02 -0.18265094230E+02  0.32923258875E+02  0.47000000000E+01 0.  1.
          5    1    3    3  503    0  0.68464478747E+02  0.13480835580E+02 -0.40767058513E+01  0.70055887038E+02  0.47000000000E+01 0. -1.
         -5    1    4    4    0  502 -0.53870530744E+02 -0.31495267161E+01  0.36579006566E+02  0.65361053560E+02  0.47000000000E+01 0.  1.
<mgrwt>
<rscale>  0 0.10254648E+03</rscale>
<asrwt>0</asrwt>
<pdfrwt beam="1">  1        1 0.17090270E-01 0.10322883E+03</pdfrwt>
<pdfrwt beam="2">  1       -1 0.14666325E-01 0.10322883E+03</pdfrwt>
<totfact> 0.96036188E+03</totfact>
</mgrwt>
</event>
<event>
 8    1  0.6836165E-004  0.9732080E+02  0.7546771E-02  0.1286826E+00
         -1   -1    0    0    0  501 -0.00000000000E+00  0.00000000000E+00  0.45173585059E+02  0.45173585059E+02  0.00000000000E+00 0.  1.
          1   -1    0    0  501    0  0.00000000000E+00 -0.00000000000E+00 -0.28702452143E+03  0.28702452143E+03  0.00000000000E+00 0. -1.
         23    2    1    2    0    0 -0.27234667071E+02  0.10418814521E+02 -0.33636776514E+02  0.10296975482E+03  0.92849657437E+02 0.  0.
         23    2    1    2    0    0  0.27234667071E+02 -0.10418814521E+02 -0.20821415985E+03  0.22922835167E+03  0.91335765499E+02 0.  0.
          5    1    3    3  502    0  0.33043627016E+02 -0.61282909243E+01 -0.59887183030E+01  0.34458554568E+02  0.47000000000E+01 0. -1.
         -5    1    3    3    0  502 -0.60278294086E+02  0.16547105446E+02 -0.27648058211E+02  0.68511200248E+02  0.47000000000E+01 0.  1.
          5    1    4    4  503    0  0.48617179412E+02  0.23008657920E+02 -0.96421258041E+02  0.11050872126E+03  0.47000000000E+01 0. -1.
         -5    1    4    4    0  503 -0.21382512342E+02 -0.33427472442E+02 -0.11179290181E+03  0.11871963040E+03  0.47000000000E+01 0.  1.
<mgrwt>
<rscale>  0 0.96957957E+02</rscale>
<asrwt>0</asrwt>
<pdfrwt beam="1">  1        1 0.44157620E-01 0.97320798E+02</pdfrwt>
<pdfrwt beam="2">  1       -1 0.69497820E-02 0.97320798E+02</pdfrwt>
<totfact> 0.91312622E+03</totfact>
</mgrwt>
</event>
<event>
 8    1  0.6836165E-004  0.1237402E+03  0.7546771E-02  0.1237870E+00
         -1   -1    0    0    0  501 -0.00000000000E+00  0.00000000000E+00  0.43363345521E+02  0.43363345521E+02  0.00000000000E+00 0.  1.
          1   -1    0    0  501    0  0.00000000000E+00 -0.00000000000E+00 -0.36250318974E+03  0.36250318974E+03  0.00000000000E+00 0. -1.
         23    2    1    2    0    0 -0.73928278264E+02 -0.32436904648E+02 -0.20243493832E+03  0.23725838725E+03  0.93776835935E+02 0.  0.
         23    2    1    2    0    0  0.73928278264E+02  0.32436904648E+02 -0.11670490590E+03  0.16860814801E+03  0.91055639058E+02 0.  0.
          5    1    4    4  502    0  0.54577493498E+02  0.60871031659E+02 -0.10226162549E+03  0.13100960018E+03  0.47000000000E+01 0. -1.
         -5    1    3    3    0  503 -0.39093311860E+02 -0.50209376816E+02 -0.53701617401E+02  0.83397975179E+02  0.47000000000E+01 0.  1.
          5    1    3    3  503    0 -0.34834966404E+02  0.17772472168E+02 -0.14873332092E+03  0.15386041207E+03  0.47000000000E+01 0. -1.
         -5    1    4    4    0  502  0.19350784766E+02 -0.28434127011E+02 -0.14443280411E+02  0.37598547831E+02  0.47000000000E+01 0.  1.
<mgrwt>
<rscale>  0 0.12322466E+03</rscale>
<asrwt>0</asrwt>
<pdfrwt beam="1">  1        1 0.55769721E-01 0.12374020E+03</pdfrwt>
<pdfrwt beam="2">  1       -1 0.66712839E-02 0.12374020E+03</pdfrwt>
<totfact> 0.74097086E+03</totfact>
</mgrwt>
</event>
<event>
 8    1  0.6836165E-004  0.1169923E+03  0.7546771E-02  0.1248662E+00
          1   -1    0    0  501    0  0.00000000000E+00  0.00000000000E+00  0.63939229680E+03  0.63939229680E+03  0.00000000000E+00 0. -1.
         -1   -1    0    0    0  501 -0.00000000000E+00 -0.00000000000E+00 -0.22042193146E+02  0.22042193146E+02  0.00000000000E+00 0.  1.
         23    2    1    2    0    0 -0.27623435933E+02 -0.67314222975E+02  0.24502818399E+03  0.27152531679E+03  0.91612924204E+02 0.  0.
         23    2    1    2    0    0  0.27623435933E+02  0.67314222975E+02  0.37232191966E+03  0.38990917315E+03  0.90062714933E+02 0.  0.
          5    1    3    3  502    0 -0.37399532940E+02 -0.47106919751E+02  0.24075091520E+03  0.24819524597E+03  0.47000000000E+01 0. -1.
         -5    1    4    4    0  503  0.20343708211E+02 -0.14856040285E+02  0.16067523611E+03  0.16270583855E+03  0.47000000000E+01 0.  1.
          5    1    4    4  503    0  0.72797277221E+01  0.82170263260E+02  0.21164668355E+03  0.22720333461E+03  0.47000000000E+01 0. -1.
         -5    1    3    3    0  502  0.97760970068E+01 -0.20207303224E+02  0.42772687925E+01  0.23330070822E+02  0.47000000000E+01 0.  1.
<mgrwt>
<rscale>  0 0.11668859E+03</rscale>
<asrwt>0</asrwt>
<pdfrwt beam="1">  1        1 0.98368032E-01 0.11699225E+03</pdfrwt>
<pdfrwt beam="2">  1       -1 0.33911071E-02 0.11699225E+03</pdfrwt>
<totfact> 0.95778968E+03</totfact>
</mgrwt>
</event>
<event>
 8    1  0.6836165E-004  0.1060859E+03  0.7546771E-02  0.1273672E+00
         -1   -1    0    0    0  501 -0.00000000000E+00  0.00000000000E+00  0.12127841030E+02  0.12127841030E+02  0.00000000000E+00 0.  1.
          1   -1    0    0  501    0  0.00000000000E+00 -0.00000000000E+00 -0.12038374926E+04  0.12038374926E+04  0.00000000000E+00 0. -1.
         23    2    1    2    0    0  0.27866259021E+02 -0.48897023621E+01 -0.23665643915E+03  0.25503825492E+03  0.90762347373E+02 0.  0.
         23    2    1    2    0    0 -0.27866259021E+02  0.48897023621E+01 -0.95505321241E+03  0.96092707871E+03  0.10224370134E+03 0.  0.
          5    1    4    4  502    0 -0.43055023816E+02 -0.39667661986E+02 -0.54293143594E+03  0.54609879382E+03  0.47000000000E+01 0. -1.
         -5    1    3    3    0  503  0.55289062100E+01 -0.46412064832E+02 -0.13338807948E+03  0.14141823897E+03  0.47000000000E+01 0.  1.
          5    1    3    3  503    0  0.22337352811E+02  0.41522362470E+02 -0.10326835967E+03  0.11362001595E+03  0.47000000000E+01 0. -1.
         -5    1    4    4    0  502  0.15188764795E+02  0.44557364348E+02 -0.41212177647E+03  0.41482828488E+03  0.47000000000E+01 0.  1.
<mgrwt>
<rscale>  0 0.10321757E+03</rscale>
<asrwt>0</asrwt>
<pdfrwt beam="1">  1        1 0.18520586E+00 0.10608587E+03</pdfrwt>
<pdfrwt beam="2">  1       -1 0.18658208E-02 0.10608587E+03</pdfrwt>
<totfact> 0.82813581E+03</totfact>
</mgrwt>
</event>
<event>
 8    1  0.6836165E-004  0.1025405E+03  0.7546771E-02  0.1275226E+00
          1   -1    0    0  501    0  0.00000000000E+00  0.00000000000E+00  0.14351113611E+03  0.14351113611E+03  0.00000000000E+00 0. -1.
         -1   -1    0    0    0  501 -0.00000000000E+00 -0.00000000000E+00 -0.81764692918E+02  0.81764692918E+02  0.00000000000E+00 0.  1.
         23    2    1    2    0    0 -0.19707084662E+02  0.39464114974E+02  0.67682640573E+02  0.12256360924E+03  0.92168936840E+02 0.  0.
         23    2    1    2    0    0  0.19707084662E+02 -0.39464114974E+02 -0.59361973786E+01  0.10271221979E+03  0.92567683879E+02 0.  0.
          5    1    4    4  502    0 -0.16879722717E+02 -0.47812595691E+02  0.22223037073E+02  0.55560082095E+02  0.47000000000E+01 0. -1.
         -5    1    3    3    0  503 -0.47276945416E+02  0.51750454337E+02  0.37559094399E+02  0.79661751575E+02  0.47000000000E+01 0.  1.
          5    1    3    3  503    0  0.27569860754E+02 -0.12286339363E+02  0.30123546175E+02  0.42901857664E+02  0.47000000000E+01 0. -1.
         -5    1    4    4    0  502  0.36586807379E+02  0.83484807170E+01 -0.28159234451E+02  0.47152137696E+02  0.47000000000E+01 0.  1.
<mgrwt>
<rscale>  0 0.10245046E+03</rscale>
<asrwt>0</asrwt>
<pdfrwt beam="1">  1        1 0.22078636E-01 0.10254054E+03</pdfrwt>
<pdfrwt beam="2">  1       -1 0.12579184E-01 0.10254054E+03</pdfrwt>
<totfact> 0.88042790E+03</totfact>
</mgrwt>
</event>
<event>
 8    1  0.6836165E-004  0.1077428E+03  0.7546771E-02  0.1266244E+00
          1   -1    0    0  501    0  0.00000000000E+00  0.00000000000E+00  0.16203213258E+03  0.16203213258E+03  0.00000000000E+00 0. -1.
         -1   -1    0    0    0  501 -0.00000000000E+00 -0.00000000000E+00 -0.75895338547E+02  0.75895338547E+02  0.00000000000E+00 0.  1.
         23    2    1    2    0    0  0.47960589023E+02  0.27636428446E+02  0.95803886628E+01  0.10816794367E+03  0.92436626472E+02 0.  0.
         23    2    1    2    0    0 -0.47960589023E+02 -0.27636428446E+02  0.76556405375E+02  0.12975952747E+03  0.88953142089E+02 0.  0.
          5    1    4    4  502    0 -0.26683769143E+02  0.18943981433E+02 -0.49069991100E+01  0.33422546409E+02  0.47000000000E+01 0. -1.
         -5    1    3    3    0  503  0.42321992537E+02 -0.24352440818E+01 -0.34116549551E+02  0.54617858062E+02  0.47000000000E+01 0.  1.
          5    1    3    3  503    0  0.56385964855E+01  0.30071672527E+02  0.43696938214E+02  0.53550085604E+02  0.47000000000E+01 0. -1.
         -5    1    4    4    0  502 -0.21276819880E+02 -0.46580409879E+02  0.81463404485E+02  0.96336981056E+02  0.47000000000E+01 0.  1.
<mgrwt>
<rscale>  0 0.10699169E+03</rscale>
<asrwt>0</asrwt>
<pdfrwt beam="1">  1        1 0.24928020E-01 0.10774284E+03</pdfrwt>
<pdfrwt beam="2">  1       -1 0.11676206E-01 0.10774284E+03</pdfrwt>
<totfact> 0.85160605E+03</totfact>
</mgrwt>
</event>
<event>
 8    1  0.6836165E-004  0.1203226E+03  0.7546771E-02  0.1244172E+00
         -2   -1    0    0    0  501 -0.00000000000E+00  0.00000000000E+00  0.24487267961E+02  0.24487267961E+02  0.00000000000E+00 0.  1.
          2   -1    0    0  501    0  0.00000000000E+00 -0.00000000000E+00 -0.75252957670E+03  0.75252957670E+03  0.00000000000E+00 0. -1.
         23    2    1    2    0    0  0.69034834277E+02 -0.35290019710E+02 -0.17850951711E+03  0.21527463867E+03  0.92012654130E+02 0.  0.
         23    2    1    2    0    0 -0.69034834277E+02  0.35290019710E+02 -0.54953279162E+03  0.56174220599E+03  0.86929989552E+02 0.  0.
          5    1    4    4  502    0 -0.61763255666E+02 -0.11029932224E+02 -0.40123211548E+03  0.40613502638E+03  0.47000000000E+01 0. -1.
         -5    1    3    3    0  503  0.59039133819E+02 -0.55131765504E+02 -0.78561043280E+02  0.11277880302E+03  0.47000000000E+01 0.  1.
          5    1    3    3  503    0  0.99957004574E+01  0.19841745794E+02 -0.99948473834E+02  0.10249583565E+03  0.47000000000E+01 0. -1.
         -5    1    4    4    0  502 -0.72715786112E+01  0.46319951934E+02 -0.14830067614E+03  0.15560717961E+03  0.47000000000E+01 0.  1.
<mgrwt>
<rscale>  0 0.11935068E+03</rscale>
<asrwt>0</asrwt>
<pdfrwt beam="1">  1        2 0.11577379E+00 0.12032258E+03</pdfrwt>
<pdfrwt beam="2">  1       -2 0.37672718E-02 0.12032258E+03</pdfrwt>
<totfact> 0.10955408E+04</totfact>
</mgrwt>
</event>
<event>
 7    1  0.6836165E-004  0.1696737E+03  0.7546771E-02  0.1196364E+00
         -3   -1    0    0    0  501 -0.00000000000E+00  0.00000000000E+00  0.20953080480E+03  0.20953080480E+03  0.00000000000E+00 0.  1.
          3   -1    0    0  501    0  0.00000000000E+00 -0.00000000000E+00 -0.15230658448E+03  0.15230658448E+03  0.00000000000E+00 0. -1.
         23    2    1    2    0    0 -0.82651651895E+01 -0.65740091920E+02  0.13408211238E+03  0.17556795522E+03  0.91956627804E+02 0.  0.
          5    1    1    2  502    0  0.48557311637E+02  0.10207384994E+03 -0.37903541134E+02  0.11931325067E+03  0.47000000000E+01 0. -1.
         -5    1    3    3    0  503 -0.13687741132E+02 -0.21367903417E+02  0.12756485389E+03  0.13014923550E+03  0.47000000000E+01 0.  1.
          5    1    3    3  503    0  0.54225759429E+01 -0.44372188503E+02  0.65172584924E+01  0.45418719716E+02  0.47000000000E+01 0. -1.
         -5    1    1    2    0  502 -0.40292146447E+02 -0.36333758021E+02 -0.38954350933E+02  0.66956183388E+02  0.47000000000E+01 0.  1.
<mgrwt>
<rscale>  0 0.15339362E+03</rscale>
<asrwt>0</asrwt>
<pdfrwt beam="1">  1        3 0.23431782E-01 0.16967371E+03</pdfrwt>
<pdfrwt beam="2">  1       -3 0.32235508E-01 0.16967371E+03</pdfrwt>
<totfact> 0.37953473E+02</totfact>
</mgrwt>
</event>
<event>
 8    1  0.6836165E-004  0.9776631E+02  0.7546771E-02  0.1286484E+00
         -3   -1    0    0    0  501 -0.00000000000E+00  0.00000000000E+00  0.85299296409E+03  0.85299296409E+03  0.00000000000E+00 0.  1.
          3   -1    0    0  501    0  0.00000000000E+00 -0.00000000000E+00 -0.11003816958E+02  0.11003816958E+02  0.00000000000E+00 0. -1.
         23    2    1    2    0    0  0.27938014326E+02  0.79274590240E+01  0.38701896470E+03  0.39917656594E+03  0.93353492200E+02 0.  0.
         23    2    1    2    0    0 -0.27938014326E+02 -0.79274590240E+01  0.45497018243E+03  0.46482021510E+03  0.90645398231E+02 0.  0.
          5    1    4    4  502    0  0.23509425701E+02 -0.27330593662E+02  0.24662854758E+03  0.24929377234E+03  0.47000000000E+01 0. -1.
         -5    1    3    3    0  503 -0.25095788007E+02 -0.22585769900E+02  0.99356297056E+02  0.10504132207E+03  0.47000000000E+01 0.  1.
          5    1    3    3  503    0  0.53033802332E+02  0.30513228924E+02  0.28766266765E+03  0.29413524387E+03  0.47000000000E+01 0. -1.
         -5    1    4    4    0  502 -0.51447440027E+02  0.19403134638E+02  0.20834163484E+03  0.21552644276E+03  0.47000000000E+01 0.  1.
<mgrwt>
<rscale>  0 0.97114201E+02</rscale>
<asrwt>0</asrwt>
<pdfrwt beam="1">  1        3 0.16928956E-02 0.97766312E+02</pdfrwt>
<pdfrwt beam="2">  1       -3 0.13122963E+00 0.97766312E+02</pdfrwt>
<totfact> 0.12779513E+03</totfact>
</mgrwt>
</event>
<event>
 8    1  0.6836165E-004  0.1123230E+03  0.7546771E-02  0.1256536E+00
          1   -1    0    0  501    0  0.00000000000E+00  0.00000000000E+00  0.90031200167E+03  0.90031200167E+03  0.00000000000E+00 0. -1.
         -1   -1    0    0    0  501 -0.00000000000E+00 -0.00000000000E+00 -0.15127841985E+02  0.15127841985E+02  0.00000000000E+00 0.  1.
         23    2    1    2    0    0  0.42180188296E+02 -0.53766857808E+02  0.31434800020E+03  0.33365776408E+03  0.88559556333E+02 0.  0.
         23    2    1    2    0    0 -0.42180188296E+02  0.53766857808E+02  0.57083615949E+03  0.58178207958E+03  0.89142716223E+02 0.  0.
          5    1    4    4  502    0  0.21536718429E+01  0.62312774784E+02  0.40694317055E+03  0.41171878056E+03  0.47000000000E+01 0.  1.
         -5    1    4    4    0  502 -0.44333860139E+02 -0.85459169761E+01  0.16389298893E+03  0.17006329902E+03  0.47000000000E+01 0. -1.
          5    1    3    3  503    0 -0.84845231056E+01 -0.49260102293E+02  0.22685937481E+03  0.23234846836E+03  0.47000000000E+01 0. -1.
         -5    1    3    3    0  503  0.50664711401E+02 -0.45067555144E+01  0.87488625395E+02  0.10130929572E+03  0.47000000000E+01 0.  1.
<mgrwt>
<rscale>  0 0.11220731E+03</rscale>
<asrwt>0</asrwt>
<pdfrwt beam="1">  1        1 0.13850950E+00 0.11232305E+03</pdfrwt>
<pdfrwt beam="2">  1       -1 0.23273610E-02 0.11232305E+03</pdfrwt>
<totfact> 0.99619909E+03</totfact>
</mgrwt>
</event>
<event>
 8    1  0.6836165E-004  0.1087370E+03  0.7546771E-02  0.1264952E+00
          2   -1    0    0  501    0  0.00000000000E+00  0.00000000000E+00  0.66364376232E+03  0.66364376232E+03  0.00000000000E+00 0. -1.
         -2   -1    0    0    0  501 -0.00000000000E+00 -0.00000000000E+00 -0.17155679117E+02  0.17155679117E+02  0.00000000000E+00 0.  1.
         23    2    1    2    0    0 -0.55060053670E+02 -0.13547517174E+02  0.34222537221E+03  0.35908485959E+03  0.92782467470E+02 0.  0.
         23    2    1    2    0    0  0.55060053670E+02  0.13547517174E+02  0.30426271099E+03  0.32171458184E+03  0.87802791189E+02 0.  0.
          5    1    3    3  502    0 -0.10076747261E+02  0.37870199016E+02  0.14660275421E+03  0.15182275966E+03  0.47000000000E+01 0. -1.
         -5    1    3    3    0  502 -0.44983306409E+02 -0.51417716190E+02  0.19562261800E+03  0.20726209993E+03  0.47000000000E+01 0.  1.
          5    1    4    4  503    0  0.40482182054E+02  0.35761798351E+02  0.28070950582E+03  0.28589793623E+03  0.47000000000E+01 0. -1.
         -5    1    4    4    0  503  0.14577871616E+02 -0.22214281177E+02  0.23553205174E+02  0.35816645614E+02  0.47000000000E+01 0.  1.
<mgrwt>
<rscale>  0 0.10766710E+03</rscale>
<asrwt>0</asrwt>
<pdfrwt beam="1">  1        2 0.10209902E+00 0.10873698E+03</pdfrwt>
<pdfrwt beam="2">  1       -2 0.26393358E-02 0.10873698E+03</pdfrwt>
<totfact> 0.21246263E+04</totfact>
</mgrwt>
</event>
<event>
 8    1  0.6836165E-004  0.1042376E+03  0.7546771E-02  0.1273332E+00
          1   -1    0    0  501    0  0.00000000000E+00  0.00000000000E+00  0.11935512821E+03  0.11935512821E+03  0.00000000000E+00 0. -1.
         -1   -1    0    0    0  501 -0.00000000000E+00 -0.00000000000E+00 -0.88957352035E+02  0.88957352035E+02  0.00000000000E+00 0.  1.
         23    2    1    2    0    0  0.16529381291E+02  0.43261998469E+02  0.53484551352E+01  0.10437471362E+03  0.93384441499E+02 0.  0.
         23    2    1    2    0    0 -0.16529381291E+02 -0.43261998469E+02  0.25049321043E+02  0.10393776663E+03  0.89614562929E+02 0.  0.
          5    1    4    4  502    0  0.26885442143E+02 -0.48193396315E+02  0.49270798291E+01  0.55603925790E+02  0.47000000000E+01 0. -1.
         -5    1    3    3    0  503 -0.38184166014E+02  0.23506905521E+02 -0.40319194500E+01  0.45265345639E+02  0.47000000000E+01 0.  1.
          5    1    3    3  503    0  0.54713547305E+02  0.19755092948E+02  0.93803745852E+01  0.59109367984E+02  0.47000000000E+01 0. -1.
         -5    1    4    4    0  502 -0.43414823434E+02  0.49313978456E+01  0.20122241214E+02  0.48333840836E+02  0.47000000000E+01 0.  1.
<mgrwt>
<rscale>  0 0.10338635E+03</rscale>
<asrwt>0</asrwt>
<pdfrwt beam="1">  1        1 0.18362327E-01 0.10423759E+03</pdfrwt>
<pdfrwt beam="2">  1       -1 0.13685746E-01 0.10423759E+03</pdfrwt>
<totfact> 0.97669106E+03</totfact>
</mgrwt>
</event>
<event>
 7    1  0.6836165E-004  0.2331824E+03  0.7546771E-02  0.1134580E+00
          2   -1    0    0  501    0  0.00000000000E+00  0.00000000000E+00  0.12898949488E+04  0.12898949488E+04  0.00000000000E+00 0. -1.
         -2   -1    0    0    0  501 -0.00000000000E+00 -0.00000000000E+00 -0.40313451776E+02  0.40313451776E+02  0.00000000000E+00 0.  1.
         23    2    1    2    0    0  0.12389062398E+03 -0.95835019874E+02  0.28595907541E+03  0.33877397889E+03  0.91989011413E+02 0.  0.
          5    1    3    3  502    0  0.39542716807E+02 -0.87401876782E+02  0.13687708915E+03  0.16721286449E+03  0.47000000000E+01 0. -1.
         -5    1    1    2    0  503  0.28700933291E+02  0.72869233499E+02  0.29978632454E+03  0.30988320243E+03  0.47000000000E+01 0.  1.
          5    1    1    2  503    0 -0.15259155727E+03  0.22965786375E+02  0.66383609704E+03  0.68155121922E+03  0.47000000000E+01 0. -1.
         -5    1    3    3    0  502  0.84347907176E+02 -0.84331430918E+01  0.14908198626E+03  0.17156111440E+03  0.47000000000E+01 0.  1.
<mgrwt>
<rscale>  0 0.21906764E+03</rscale>
<asrwt>0</asrwt>
<pdfrwt beam="1">  1        2 0.19844534E+00 0.23318242E+03</pdfrwt>
<pdfrwt beam="2">  1       -2 0.62020705E-02 0.23318242E+03</pdfrwt>
<totfact> 0.24972181E+03</totfact>
</mgrwt>
</event>
<event>
 8    1  0.6836165E-004  0.9499391E+02  0.7546771E-02  0.1291406E+00
          2   -1    0    0  501    0  0.00000000000E+00  0.00000000000E+00  0.63151846993E+03  0.63151846993E+03  0.00000000000E+00 0. -1.
         -2   -1    0    0    0  501 -0.00000000000E+00 -0.00000000000E+00 -0.11944525479E+03  0.11944525479E+03  0.00000000000E+00 0.  1.
         23    2    1    2    0    0  0.24033201134E+02  0.71971316533E+01 -0.96305514326E+02  0.13527229903E+03  0.91621227536E+02 0.  0.
         23    2    1    2    0    0 -0.24033201134E+02 -0.71971316533E+01  0.60837872946E+03  0.61569142569E+03  0.91224227833E+02 0.  0.
          5    1    3    3  502    0  0.30082694852E+02 -0.16195774817E+02  0.13982561715E+01  0.34515456998E+02  0.47000000000E+01 0. -1.
         -5    1    3    3    0  502 -0.60494937176E+01  0.23392906470E+02 -0.97703770497E+02  0.10075684203E+03  0.47000000000E+01 0.  1.
          5    1    4    4  503    0  0.55773978639E+01 -0.45365513141E+02  0.27991777737E+03  0.28366386664E+03  0.47000000000E+01 0. -1.
         -5    1    4    4    0  503 -0.29610598998E+02  0.38168381487E+02  0.32846095209E+03  0.33202755905E+03  0.47000000000E+01 0.  1.
<mgrwt>
<rscale>  0 0.94898053E+02</rscale>
<asrwt>0</asrwt>
<pdfrwt beam="1">  1        2 0.97156686E-01 0.94993909E+02</pdfrwt>
<pdfrwt beam="2">  1       -2 0.18376193E-01 0.94993909E+02</pdfrwt>
<totfact> 0.11437488E+03</totfact>
</mgrwt>
</event>
<event>
 8    1  0.6836165E-004  0.1130284E+03  0.7546771E-02  0.1256305E+00
          1   -1    0    0  501    0  0.00000000000E+00  0.00000000000E+00  0.20029740622E+03  0.20029740622E+03  0.00000000000E+00 0. -1.
         -1   -1    0    0    0  501 -0.00000000000E+00 -0.00000000000E+00 -0.63413209914E+02  0.63413209914E+02  0.00000000000E+00 0.  1.
         23    2    1    2    0    0  0.26408729070E+02  0.56336937482E+02  0.85537627363E+02  0.13956596958E+03  0.91053295791E+02 0.  0.
         23    2    1    2    0    0 -0.26408729070E+02 -0.56336937482E+02  0.51346568938E+02  0.12414464655E+03  0.94361812343E+02 0.  0.
          5    1    3    3  502    0 -0.32647300965E+01  0.26460870119E+02  0.92720330612E+02  0.96591851721E+02  0.47000000000E+01 0. -1.
         -5    1    3    3    0  502  0.29673459166E+02  0.29876067363E+02 -0.71827032490E+01  0.42974117861E+02  0.47000000000E+01 0.  1.
          5    1    4    4  503    0 -0.59295565453E+02 -0.44278860760E+02  0.19749808245E+02  0.76738038275E+02  0.47000000000E+01 0. -1.
         -5    1    4    4    0  503  0.32886836383E+02 -0.12058076722E+02  0.31596760693E+02  0.47406608272E+02  0.47000000000E+01 0.  1.
<mgrwt>
<rscale>  0 0.11233530E+03</rscale>
<asrwt>0</asrwt>
<pdfrwt beam="1">  1        1 0.30814985E-01 0.11302842E+03</pdfrwt>
<pdfrwt beam="2">  1       -1 0.97558785E-02 0.11302842E+03</pdfrwt>
<totfact> 0.86413942E+03</totfact>
</mgrwt>
</event>
<event>
 8    1  0.6836165E-004  0.1313708E+03  0.7546771E-02  0.1233168E+00
          1   -1    0    0  501    0  0.00000000000E+00  0.00000000000E+00  0.62067461860E+03  0.62067461860E+03  0.00000000000E+00 0. -1.
         -1   -1    0    0    0  501 -0.00000000000E+00 -0.00000000000E+00 -0.13897555248E+03  0.13897555248E+03  0.00000000000E+00 0.  1.
         23    2    1    2    0    0 -0.19863792821E+02  0.93084637727E+02 -0.10136629459E+03  0.16593193469E+03  0.90548115519E+02 0.  0.
         23    2    1    2    0    0  0.19863792821E+02 -0.93084637727E+02  0.58306536071E+03  0.59371823640E+03  0.58964475083E+02 0.  0.
          5    1    3    3  502    0  0.21494938731E+02 -0.31450343710E+01 -0.34865290471E+01  0.22498211419E+02  0.47000000000E+01 0. -1.
         -5    1    3    3    0  502 -0.41358731552E+02  0.96229672098E+02 -0.97879765546E+02  0.14343372327E+03  0.47000000000E+01 0.  1.
          5    1    4    4  503    0  0.28685568109E+02 -0.70654413295E+02  0.52702200775E+03  0.53253093298E+03  0.47000000000E+01 0. -1.
         -5    1    4    4    0  503 -0.88217752878E+01 -0.22430224432E+02  0.56043352967E+02  0.61187303414E+02  0.47000000000E+01 0.  1.
<mgrwt>
<rscale>  0 0.12622475E+03</rscale>
<asrwt>0</asrwt>
<pdfrwt beam="1">  1        1 0.95488401E-01 0.13137078E+03</pdfrwt>
<pdfrwt beam="2">  1       -1 0.21380855E-01 0.13137078E+03</pdfrwt>
<totfact> 0.61224789E+02</totfact>
</mgrwt>
</event>
<event>
 8    1  0.6836165E-004  0.9542862E+02  0.7546771E-02  0.1292001E+00
         -1   -1    0    0    0  501 -0.00000000000E+00  0.00000000000E+00  0.14411792635E+02  0.14411792635E+02  0.00000000000E+00 0.  1.
          1   -1    0    0  501    0  0.00000000000E+00 -0.00000000000E+00 -0.64929178355E+03  0.64929178355E+03  0.00000000000E+00 0. -1.
         23    2    1    2    0    0 -0.59249063295E+01  0.97314710295E+01 -0.24215981261E+03  0.26028445375E+03  0.94746060479E+02 0.  0.
         23    2    1    2    0    0  0.59249063295E+01 -0.97314710295E+01 -0.39272017831E+03  0.40341912244E+03  0.91586264566E+02 0.  0.
          5    1    4    4  502    0  0.18754927421E+02  0.36641952837E+02 -0.13539249551E+03  0.14158954005E+03  0.47000000000E+01 0. -1.
         -5    1    4    4    0  502 -0.12830021091E+02 -0.46373423867E+02 -0.25732768279E+03  0.26182958239E+03  0.47000000000E+01 0.  1.
          5    1    3    3  503    0 -0.97764183463E+01  0.41306119613E+02 -0.21179845771E+03  0.21606121948E+03  0.47000000000E+01 0. -1.
         -5    1    3    3    0  503  0.38515120168E+01 -0.31574648584E+02 -0.30361354896E+02  0.44223234268E+02  0.47000000000E+01 0.  1.
<mgrwt>
<rscale>  0 0.94634663E+02</rscale>
<asrwt>0</asrwt>
<pdfrwt beam="1">  1        1 0.99891022E-01 0.95428623E+02</pdfrwt>
<pdfrwt beam="2">  1       -1 0.22171993E-02 0.95428623E+02</pdfrwt>
<totfact> 0.17035661E+04</totfact>
</mgrwt>
</event>
<event>
 8    1  0.6836165E-004  0.1132947E+03  0.7546771E-02  0.1257833E+00
         -3   -1    0    0    0  501 -0.00000000000E+00  0.00000000000E+00  0.43361899530E+02  0.43361899530E+02  0.00000000000E+00 0.  1.
          3   -1    0    0  501    0  0.00000000000E+00 -0.00000000000E+00 -0.29743826729E+03  0.29743826729E+03  0.00000000000E+00 0. -1.
         23    2    1    2    0    0 -0.43196226086E+02  0.32098653635E+02 -0.16688469678E+03  0.19783835167E+03  0.91614812456E+02 0.  0.
         23    2    1    2    0    0  0.43196226086E+02 -0.32098653635E+02 -0.87191670984E+02  0.14296181515E+03  0.99696818343E+02 0.  0.
          5    1    3    3  502    0 -0.21954448677E+02  0.49183138216E+02 -0.38162259206E+02  0.66177238755E+02  0.47000000000E+01 0.  1.
         -5    1    3    3    0  502 -0.21241777409E+02 -0.17084484581E+02 -0.12872243757E+03  0.13166111292E+03  0.47000000000E+01 0.  1.
          5    1    4    4  503    0  0.51722924762E+02  0.14164947697E+02 -0.78041365195E+02  0.94807443646E+02  0.47000000000E+01 0.  1.
         -5    1    4    4    0  503 -0.85266986756E+01 -0.46263601333E+02 -0.91503057890E+01  0.48154371501E+02  0.47000000000E+01 0.  1.
<mgrwt>
<rscale>  0 0.11149147E+03</rscale>
<asrwt>0</asrwt>
<pdfrwt beam="1">  1        3 0.45759734E-01 0.11329472E+03</pdfrwt>
<pdfrwt beam="2">  1       -3 0.66710614E-02 0.11329472E+03</pdfrwt>
<totfact> 0.15239078E+03</totfact>
</mgrwt>
</event>
<event>
 8    1  0.6836165E-004  0.9649790E+02  0.7546771E-02  0.1288414E+00
         -1   -1    0    0    0  501 -0.00000000000E+00  0.00000000000E+00  0.22084686343E+02  0.22084686343E+02  0.00000000000E+00 0.  1.
          1   -1    0    0  501    0  0.00000000000E+00 -0.00000000000E+00 -0.42210601696E+03  0.42210601696E+03  0.00000000000E+00 0. -1.
         23    2    1    2    0    0 -0.13055916792E+02  0.26824547533E+02 -0.17479218984E+03  0.19916007247E+03  0.90677513876E+02 0.  0.
         23    2    1    2    0    0  0.13055916792E+02 -0.26824547533E+02 -0.22522914077E+03  0.24503063083E+03  0.91770533826E+02 0.  0.
          5    1    4    4  502    0  0.25654593246E+02 -0.55595693331E+02 -0.17638734461E+03  0.18677158405E+03  0.47000000000E+01 0. -1.
         -5    1    4    4    0  502 -0.12598676455E+02  0.28771145798E+02 -0.48841796165E+02  0.58259046779E+02  0.47000000000E+01 0.  1.
          5    1    3    3  503    0  0.16874689893E+02  0.40701028066E+02 -0.15313494525E+03  0.15941684447E+03  0.47000000000E+01 0. -1.
         -5    1    3    3    0  503 -0.29930606684E+02 -0.13876480534E+02 -0.21657244596E+02  0.39743228001E+02  0.47000000000E+01 0.  1.
<mgrwt>
<rscale>  0 0.96237123E+02</rscale>
<asrwt>0</asrwt>
<pdfrwt beam="1">  1        1 0.64939382E-01 0.96497897E+02</pdfrwt>
<pdfrwt beam="2">  1       -1 0.33976443E-02 0.96497897E+02</pdfrwt>
<totfact> 0.16175523E+04</totfact>
</mgrwt>
</event>
<event>
 8    1  0.6836165E-004  0.1019999E+03  0.7546771E-02  0.1279276E+00
          2   -1    0    0  501    0  0.00000000000E+00  0.00000000000E+00  0.84888136371E+03  0.84888136371E+03  0.00000000000E+00 0. -1.
         -2   -1    0    0    0  501 -0.00000000000E+00 -0.00000000000E+00 -0.12416642746E+02  0.12416642746E+02  0.00000000000E+00 0.  1.
         23    2    1    2    0    0  0.28529353915E+02  0.16803224692E+02  0.31646973869E+03  0.33250123551E+03  0.96476441251E+02 0.  0.
         23    2    1    2    0    0 -0.28529353915E+02 -0.16803224692E+02  0.51999498228E+03  0.52879677095E+03  0.90194073947E+02 0.  0.
          5    1    4    4  502    0 -0.31271773360E+02 -0.48633708843E+02  0.41240792137E+03  0.41646794000E+03  0.47000000000E+01 0. -1.
         -5    1    4    4    0  502  0.27424194452E+01  0.31830484150E+02  0.10758706091E+03  0.11232883094E+03  0.47000000000E+01 0.  1.
          5    1    3    3  503    0  0.64139658574E+02  0.79625049950E+01  0.19112957219E+03  0.20181650243E+03  0.47000000000E+01 0. -1.
         -5    1    3    3    0  503 -0.35610304659E+02  0.88407196974E+01  0.12534016649E+03  0.13068473308E+03  0.47000000000E+01 0.  1.
<mgrwt>
<rscale>  0 0.10048640E+03</rscale>
<asrwt>0</asrwt>
<pdfrwt beam="1">  1        2 0.13059709E+00 0.10199988E+03</pdfrwt>
<pdfrwt beam="2">  1       -2 0.19102534E-02 0.10199988E+03</pdfrwt>
<totfact> 0.25072989E+04</totfact>
</mgrwt>
</event>
<event>
 8    1  0.6836165E-004  0.1130598E+03  0.7546771E-02  0.1262742E+00
         -1   -1    0    0    0  501 -0.00000000000E+00  0.00000000000E+00  0.45309706060E+02  0.45309706060E+02  0.00000000000E+00 0.  1.
          1   -1    0    0  501    0  0.00000000000E+00 -0.00000000000E+00 -0.29157224904E+03  0.29157224904E+03  0.00000000000E+00 0. -1.
         23    2    1    2    0    0 -0.19578548801E+02 -0.31162942757E+02 -0.47195259991E+02  0.10794901300E+03  0.89839569611E+02 0.  0.
         23    2    1    2    0    0  0.19578548801E+02  0.31162942757E+02 -0.19906728299E+03  0.22893294210E+03  0.10690210590E+03 0.  0.
          5    1    4    4  502    0 -0.33105152919E+02  0.38611982030E+02 -0.53932169912E+02  0.74280584660E+02  0.47000000000E+01 0. -1.
         -5    1    3    3    0  503 -0.44522905487E+02 -0.45767564722E+02 -0.17791745554E+02  0.66449945850E+02  0.47000000000E+01 0. -1.
          5    1    3    3  503    0  0.24944356686E+02  0.14604621965E+02 -0.29403514437E+02  0.41499067151E+02  0.47000000000E+01 0.  1.
         -5    1    4    4    0  502  0.52683701720E+02 -0.74490392729E+01 -0.14513511308E+03  0.15465235744E+03  0.47000000000E+01 0.  1.
<mgrwt>
<rscale>  0 0.10883527E+03</rscale>
<asrwt>0</asrwt>
<pdfrwt beam="1">  1        1 0.44857268E-01 0.11305976E+03</pdfrwt>
<pdfrwt beam="2">  1       -1 0.69707242E-02 0.11305976E+03</pdfrwt>
<totfact> 0.90252557E+03</totfact>
</mgrwt>
</event>
<event>
 8    1  0.6836165E-004  0.1080979E+03  0.7546771E-02  0.1265080E+00
          1   -1    0    0  501    0  0.00000000000E+00  0.00000000000E+00  0.21126763829E+02  0.21126763829E+02  0.00000000000E+00 0. -1.
         -1   -1    0    0    0  501 -0.00000000000E+00 -0.00000000000E+00 -0.59880190990E+03  0.59880190990E+03  0.00000000000E+00 0.  1.
         23    2    1    2    0    0 -0.82851557641E+01 -0.57544117186E+02 -0.38585983511E+03  0.40071558044E+03  0.91132841635E+02 0.  0.
         23    2    1    2    0    0  0.82851557641E+01  0.57544117186E+02 -0.19181531096E+03  0.21921309329E+03  0.88776672178E+02 0.  0.
          5    1    4    4  502    0  0.28622337451E+02  0.78106798381E+01 -0.14410809770E+03  0.14720556628E+03  0.47000000000E+01 0. -1.
         -5    1    4    4    0  502 -0.20337181687E+02  0.49733437347E+02 -0.47707213256E+02  0.72007527009E+02  0.47000000000E+01 0.  1.
          5    1    3    3  503    0 -0.35131585579E+02  0.25362073605E+01 -0.75819907854E+02  0.83734157188E+02  0.47000000000E+01 0. -1.
         -5    1    3    3    0  503  0.26846429814E+02 -0.60080324546E+02 -0.31003992726E+03  0.31698142325E+03  0.47000000000E+01 0.  1.
<mgrwt>
<rscale>  0 0.10759980E+03</rscale>
<asrwt>0</asrwt>
<pdfrwt beam="1">  1        1 0.32502709E-02 0.10809794E+03</pdfrwt>
<pdfrwt beam="2">  1       -1 0.92123383E-01 0.10809794E+03</pdfrwt>
<totfact> 0.34800451E+03</totfact>
</mgrwt>
</event>
<event>
 7    1  0.6836165E-004  0.1972823E+03  0.7546771E-02  0.1170881E+00
          3   -1    0    0  501    0  0.00000000000E+00  0.00000000000E+00  0.19236734886E+03  0.19236734886E+03  0.00000000000E+00 0. -1.
         -3   -1    0    0    0  501 -0.00000000000E+00 -0.00000000000E+00 -0.13961979854E+03  0.13961979854E+03  0.00000000000E+00 0.  1.
         23    2    1    2    0    0 -0.31913970114E+02  0.84798594186E+02  0.42969997632E+02  0.13446272269E+03  0.89579573745E+02 0.  0.
          5    1    1    2  502    0 -0.38131458698E+02 -0.11378523644E+03 -0.47732531346E+01  0.12019135626E+03  0.47000000000E+01 0. -1.
         -5    1    3    3    0  503 -0.52669718402E+02  0.64116151398E+02  0.57854687763E+02  0.10126319668E+03  0.47000000000E+01 0.  1.
          5    1    3    3  503    0  0.20755748289E+02  0.20682442788E+02 -0.14884690131E+02  0.33199526006E+02  0.47000000000E+01 0. -1.
         -5    1    1    2    0  502  0.70045428812E+02  0.28986642256E+02  0.14550805822E+02  0.77333068456E+02  0.47000000000E+01 0.  1.
<mgrwt>
<rscale>  0 0.17685551E+03</rscale>
<asrwt>0</asrwt>
<pdfrwt beam="1">  1        3 0.29594977E-01 0.19728228E+03</pdfrwt>
<pdfrwt beam="2">  1       -3 0.21479969E-01 0.19728228E+03</pdfrwt>
<totfact> 0.53039161E+02</totfact>
</mgrwt>
</event>
<event>
 8    1  0.6836165E-004  0.1491967E+03  0.7546771E-02  0.1201664E+00
         -1   -1    0    0    0  501 -0.00000000000E+00  0.00000000000E+00  0.78860437847E+02  0.78860437847E+02  0.00000000000E+00 0.  1.
          1   -1    0    0  501    0  0.00000000000E+00 -0.00000000000E+00 -0.50739777029E+03  0.50739777029E+03  0.00000000000E+00 0. -1.
         23    2    1    2    0    0 -0.10086045034E+03  0.60664183233E+02 -0.40979537441E+03  0.43588895958E+03  0.90630914318E+02 0.  0.
         23    2    1    2    0    0  0.10086045034E+03 -0.60664183233E+02 -0.18741958037E+02  0.15036924855E+03  0.91687929133E+02 0.  0.
          5    1    4    4  502    0  0.47077406133E+02  0.18076366101E+02  0.78781158140E+01  0.51256140007E+02  0.47000000000E+01 0. -1.
         -5    1    3    3    0  503 -0.29487119176E+02 -0.19881851030E+02 -0.60243615966E+02  0.70115343987E+02  0.47000000000E+01 0.  1.
          5    1    3    3  503    0 -0.71373331168E+02  0.80546034263E+02 -0.34955175844E+03  0.36577361560E+03  0.47000000000E+01 0. -1.
         -5    1    4    4    0  502  0.53783044211E+02 -0.78740549335E+02 -0.26620073851E+02  0.99113108548E+02  0.47000000000E+01 0.  1.
<mgrwt>
<rscale>  0 0.14903461E+03</rscale>
<asrwt>0</asrwt>
<pdfrwt beam="1">  1        1 0.78061196E-01 0.14919668E+03</pdfrwt>
<pdfrwt beam="2">  1       -1 0.12132375E-01 0.14919668E+03</pdfrwt>
<totfact> 0.19642630E+03</totfact>
</mgrwt>
</event>
<event>
 8    1  0.6836165E-004  0.9700965E+02  0.7546771E-02  0.1289058E+00
          1   -1    0    0  501    0  0.00000000000E+00  0.00000000000E+00  0.14889874742E+02  0.14889874742E+02  0.00000000000E+00 0. -1.
         -1   -1    0    0    0  501 -0.00000000000E+00 -0.00000000000E+00 -0.60997782011E+03  0.60997782011E+03  0.00000000000E+00 0.  1.
         23    2    1    2    0    0  0.63533374592E+01 -0.24854521487E+01 -0.33205510779E+03  0.34593563971E+03  0.96769467513E+02 0.  0.
         23    2    1    2    0    0 -0.63533374592E+01  0.24854521487E+01 -0.26303283759E+03  0.27893205515E+03  0.92575781781E+02 0.  0.
          5    1    3    3  502    0 -0.22634599261E+02 -0.32707959587E+02 -0.71146767994E+02  0.81646116258E+02  0.47000000000E+01 0. -1.
         -5    1    3    3    0  502  0.28987936720E+02  0.30222507439E+02 -0.26090833979E+03  0.26428952345E+03  0.47000000000E+01 0.  1.
          5    1    4    4  503    0 -0.23825566169E+02  0.28403825445E+02 -0.23073054710E+03  0.23373726761E+03  0.47000000000E+01 0. -1.
         -5    1    4    4    0  503  0.17472228709E+02 -0.25918373297E+02 -0.32302290486E+02  0.45194787543E+02  0.47000000000E+01 0.  1.
<mgrwt>
<rscale>  0 0.95946595E+02</rscale>
<asrwt>0</asrwt>
<pdfrwt beam="1">  1        1 0.22907508E-02 0.97009650E+02</pdfrwt>
<pdfrwt beam="2">  1       -1 0.93842706E-01 0.97009650E+02</pdfrwt>
<totfact> 0.53703237E+03</totfact>
</mgrwt>
</event>
<event>
 8    1  0.6836165E-004  0.9194900E+02  0.7546771E-02  0.1299001E+00
         -4   -1    0    0    0  501 -0.00000000000E+00  0.00000000000E+00  0.83736023483E+02  0.83736023483E+02  0.00000000000E+00 0.  1.
          4   -1    0    0  501    0  0.00000000000E+00 -0.00000000000E+00 -0.14291910862E+03  0.14291910862E+03  0.00000000000E+00 0. -1.
         23    2    1    2    0    0 -0.16375354108E+01 -0.12579075900E+01 -0.92215390051E+02  0.13022402254E+03  0.91925807203E+02 0.  0.
         23    2    1    2    0    0  0.16375354108E+01  0.12579075900E+01  0.33032304911E+02  0.96431109569E+02  0.90573516390E+02 0.  0.
          5    1    4    4  502    0  0.28729940039E+02 -0.33413424956E+02  0.63805208922E+01  0.44773513027E+02  0.47000000000E+01 0. -1.
         -5    1    4    4    0  502 -0.27092404628E+02  0.34671332546E+02  0.26651784019E+02  0.51657596542E+02  0.47000000000E+01 0.  1.
          5    1    3    3  503    0  0.26628989955E+02 -0.35358656351E+02 -0.62301793131E+02  0.76569844667E+02  0.47000000000E+01 0. -1.
         -5    1    3    3    0  503 -0.28266525366E+02  0.34100748761E+02 -0.29913596921E+02  0.53654177871E+02  0.47000000000E+01 0.  1.
<mgrwt>
<rscale>  0 0.91609130E+02</rscale>
<asrwt>0</asrwt>
<pdfrwt beam="1">  1        4 0.21987555E-01 0.91948996E+02</pdfrwt>
<pdfrwt beam="2">  1       -4 0.12882465E-01 0.91948996E+02</pdfrwt>
<totfact> 0.14019179E+03</totfact>
</mgrwt>
</event>
<event>
 7    1  0.6836165E-004  0.1448151E+03  0.7546771E-02  0.1219993E+00
          1   -1    0    0  501    0  0.00000000000E+00  0.00000000000E+00  0.81829563064E+03  0.81829563064E+03  0.00000000000E+00 0. -1.
         -1   -1    0    0    0  501 -0.00000000000E+00 -0.00000000000E+00 -0.30533750237E+02  0.30533750237E+02  0.00000000000E+00 0.  1.
         23    2    1    2    0    0 -0.56801694721E+02  0.12947118665E+02  0.10895979730E+03  0.15475180319E+03  0.93176299348E+02 0.  0.
          5    1    1    2  502    0  0.37643543516E+02  0.56004190358E+02  0.42452193618E+03  0.42987727319E+03  0.47000000000E+01 0. -1.
         -5    1    1    2    0  502  0.19158151206E+02 -0.68951309023E+02  0.25428014692E+03  0.26420030449E+03  0.47000000000E+01 0.  1.
          5    1    3    3  503    0 -0.16440107025E+01  0.33427089400E+02  0.84228074085E+02  0.90755338912E+02  0.47000000000E+01 0. -1.
         -5    1    3    3    0  503 -0.55157684019E+02 -0.20479970735E+02  0.24731723210E+02  0.63996464282E+02  0.47000000000E+01 0.  1.
<mgrwt>
<rscale>  0 0.13516065E+03</rscale>
<asrwt>0</asrwt>
<pdfrwt beam="1">  1        1 0.12589162E+00 0.14481511E+03</pdfrwt>
<pdfrwt beam="2">  1       -1 0.46975007E-02 0.14481511E+03</pdfrwt>
<totfact> 0.42038384E+03</totfact>
</mgrwt>
</event>
<event>
 8    1  0.6836165E-004  0.1294145E+03  0.7546771E-02  0.1235339E+00
         -1   -1    0    0    0  501 -0.00000000000E+00  0.00000000000E+00  0.41978652943E+02  0.41978652943E+02  0.00000000000E+00 0.  1.
          1   -1    0    0  501    0  0.00000000000E+00 -0.00000000000E+00 -0.45424949337E+03  0.45424949337E+03  0.00000000000E+00 0. -1.
         23    2    1    2    0    0 -0.51079022136E+02 -0.35829486957E+02 -0.74543086319E+02  0.13455405281E+03  0.93033879697E+02 0.  0.
         23    2    1    2    0    0  0.51079022136E+02  0.35829486957E+02 -0.33772775411E+03  0.36167409350E+03  0.11338119499E+03 0.  0.
          5    1    4    4  502    0  0.74172262997E+02  0.44218633778E+02 -0.31875388365E+03  0.33027706629E+03  0.47000000000E+01 0. -1.
         -5    1    4    4    0  502 -0.23093240861E+02 -0.83891468214E+01 -0.18973870451E+02  0.31397027213E+02  0.47000000000E+01 0.  1.
          5    1    3    3  503    0  0.13715359128E+01 -0.22793309328E+02 -0.76796351805E+02  0.80256997897E+02  0.47000000000E+01 0. -1.
         -5    1    3    3    0  503 -0.52450558049E+02 -0.13036177628E+02  0.22532654865E+01  0.54297054912E+02  0.47000000000E+01 0.  1.
<mgrwt>
<rscale>  0 0.12482729E+03</rscale>
<asrwt>0</asrwt>
<pdfrwt beam="1">  1        1 0.69884539E-01 0.12941450E+03</pdfrwt>
<pdfrwt beam="2">  1       -1 0.64582542E-02 0.12941450E+03</pdfrwt>
<totfact> 0.58687756E+03</totfact>
</mgrwt>
</event>
<event>
 8    1  0.6836165E-004  0.1775931E+03  0.7546771E-02  0.1170493E+00
          3   -1    0    0  501    0  0.00000000000E+00  0.00000000000E+00  0.97832803457E+02  0.97832803457E+02  0.00000000000E+00 0. -1.
         -3   -1    0    0    0  501 -0.00000000000E+00 -0.00000000000E+00 -0.36255816051E+03  0.36255816051E+03  0.00000000000E+00 0.  1.
         23    2    1    2    0    0 -0.38565110966E+02  0.14693478073E+03 -0.21088027744E+03  0.27481451287E+03  0.89305248997E+02 0.  0.
         23    2    1    2    0    0  0.38565110966E+02 -0.14693478073E+03 -0.53845079611E+02  0.18557645110E+03  0.91990374663E+02 0.  0.
          5    1    4    4  502    0  0.35944221502E+02 -0.10962899963E+03  0.51352888921E+01  0.11558099243E+03  0.47000000000E+01 0. -1.
         -5    1    4    4    0  502  0.26208894645E+01 -0.37305781104E+02 -0.58980368503E+02  0.69995458668E+02  0.47000000000E+01 0.  1.
          5    1    3    3  503    0  0.13110346544E+02  0.42640675972E+02 -0.15720082689E+02  0.47532298846E+02  0.47000000000E+01 0. -1.
         -5    1    3    3    0  503 -0.51675457511E+02  0.10429410476E+03 -0.19516019475E+03  0.22728221402E+03  0.47000000000E+01 0.  1.
<mgrwt>
<rscale>  0 0.17724817E+03</rscale>
<asrwt>0</asrwt>
<pdfrwt beam="1">  1        3 0.15051200E-01 0.17759315E+03</pdfrwt>
<pdfrwt beam="2">  1       -3 0.55778179E-01 0.17759315E+03</pdfrwt>
<totfact> 0.28443657E+02</totfact>
</mgrwt>
</event>
<event>
 8    1  0.6836165E-004  0.9089079E+02  0.7546771E-02  0.1302398E+00
          1   -1    0    0  501    0  0.00000000000E+00  0.00000000000E+00  0.18608543732E+03  0.18608543732E+03  0.00000000000E+00 0. -1.
         -1   -1    0    0    0  501 -0.00000000000E+00 -0.00000000000E+00 -0.43436715423E+02  0.43436715423E+02  0.00000000000E+00 0.  1.
         23    2    1    2    0    0 -0.47586959537E+01  0.79845383933E+01  0.81099295818E+02  0.11975208791E+03  0.87618883448E+02 0.  0.
         23    2    1    2    0    0  0.47586959537E+01 -0.79845383933E+01  0.61549426082E+02  0.10977006483E+03  0.90414253535E+02 0.  0.
          5    1    3    3  502    0 -0.40451139709E+02  0.23107753399E+02  0.30673961522E+02  0.55975395366E+02  0.47000000000E+01 0. -1.
         -5    1    3    3    0  502  0.35692443755E+02 -0.15123215006E+02  0.50425334296E+02  0.63776692547E+02  0.47000000000E+01 0.  1.
          5    1    4    4  503    0 -0.35087176900E+02 -0.28810786591E+02  0.32606147798E+02  0.56092978892E+02  0.47000000000E+01 0. -1.
         -5    1    4    4    0  503  0.39845872853E+02  0.20826248198E+02  0.28943278284E+02  0.53677085943E+02  0.47000000000E+01 0.  1.
<mgrwt>
<rscale>  0 0.90187607E+02</rscale>
<asrwt>0</asrwt>
<pdfrwt beam="1">  1        1 0.28628528E-01 0.90890788E+02</pdfrwt>
<pdfrwt beam="2">  1       -1 0.66825717E-02 0.90890788E+02</pdfrwt>
<totfact> 0.16347844E+04</totfact>
</mgrwt>
</event>
<event>
 8    1  0.6836165E-004  0.1055549E+03  0.7546771E-02  0.1271318E+00
          2   -1    0    0  501    0  0.00000000000E+00  0.00000000000E+00  0.23115186973E+03  0.23115186973E+03  0.00000000000E+00 0. -1.
         -2   -1    0    0    0  501 -0.00000000000E+00 -0.00000000000E+00 -0.65160382430E+02  0.65160382430E+02  0.00000000000E+00 0.  1.
         23    2    1    2    0    0 -0.80230019355E+01  0.41474615154E+02  0.16621962146E+01  0.10100235485E+03  0.91728951411E+02 0.  0.
         23    2    1    2    0    0  0.80230019355E+01 -0.41474615154E+02  0.16432929108E+03  0.19530989731E+03  0.96733281841E+02 0.  0.
          5    1    3    3  502    0 -0.33552067145E+02  0.43899407375E+01  0.31757737104E+02  0.46643934818E+02  0.47000000000E+01 0. -1.
         -5    1    3    3    0  502  0.25529065209E+02  0.37084674417E+02 -0.30095540889E+02  0.54358420033E+02  0.47000000000E+01 0.  1.
          5    1    4    4  503    0 -0.68723332215E+01 -0.71331802816E+02  0.11442399146E+03  0.13509402236E+03  0.47000000000E+01 0. -1.
         -5    1    4    4    0  503  0.14895335157E+02  0.29857187662E+02  0.49905299626E+02  0.60215874944E+02  0.47000000000E+01 0.  1.
<mgrwt>
<rscale>  0 0.10439436E+03</rscale>
<asrwt>0</asrwt>
<pdfrwt beam="1">  1        2 0.35561826E-01 0.10555491E+03</pdfrwt>
<pdfrwt beam="2">  1       -2 0.10024674E-01 0.10555491E+03</pdfrwt>
<totfact> 0.89105736E+03</totfact>
</mgrwt>
</event>
<event>
 8    1  0.2426126E-003  0.1023425E+03  0.7546771E-02  0.1278041E+00
          2   -1    0    0  501    0  0.00000000000E+00  0.00000000000E+00  0.65832927266E+03  0.65832927266E+03  0.00000000000E+00 0. -1.
         -2   -1    0    0    0  501 -0.00000000000E+00 -0.00000000000E+00 -0.55031602001E+02  0.55031602001E+02  0.00000000000E+00 0.  1.
         23    2    1    2    0    0  0.40084574059E+02  0.56332941003E+01  0.60320755184E+03  0.61101831883E+03  0.88574986711E+02 0.  0.
         23    2    1    2    0    0 -0.40084574059E+02 -0.56332941003E+01  0.90118820671E-01  0.10234255583E+03  0.93997252793E+02 0.  0.
          5    1    3    3  502    0  0.56117373346E+02 -0.20496348149E+02  0.48957865102E+03  0.49323281056E+03  0.47000000000E+01 0. -1.
         -5    1    3    3    0  502 -0.16032799286E+02  0.26129642250E+02  0.11362890081E+03  0.11778550826E+03  0.47000000000E+01 0.  1.
          5    1    4    4  503    0  0.17566426971E+02 -0.27805219796E+02 -0.18030116948E+02  0.37800591550E+02  0.47000000000E+01 0. -1.
         -5    1    4    4    0  503 -0.57651001030E+02  0.22171925695E+02  0.18120235768E+02  0.64541964280E+02  0.47000000000E+01 0.  1.
<mgrwt>
<rscale>  0 0.10108023E+03</rscale>
<asrwt>0</asrwt>
<pdfrwt beam="1">  1        2 0.10128142E+00 0.10234252E+03</pdfrwt>
<pdfrwt beam="2">  1       -2 0.84664008E-02 0.10234252E+03</pdfrwt>
<totfact> 0.37573466E+03</totfact>
</mgrwt>
</event>
<event>
 8    1  0.6836165E-004  0.1693775E+03  0.7546771E-02  0.1178610E+00
          2   -1    0    0  501    0  0.00000000000E+00  0.00000000000E+00  0.14055300928E+03  0.14055300928E+03  0.00000000000E+00 0. -1.
         -2   -1    0    0    0  501 -0.00000000000E+00 -0.00000000000E+00 -0.43452726999E+03  0.43452726999E+03  0.00000000000E+00 0.  1.
         23    2    1    2    0    0 -0.25529432050E+01  0.14216403996E+03  0.62543309251E+02  0.18055578358E+03  0.92041260727E+02 0.  0.
         23    2    1    2    0    0  0.25529432050E+01 -0.14216403996E+03 -0.35651756996E+03  0.39452449570E+03  0.91256058652E+02 0.  0.
          5    1    3    3  502    0 -0.38917174590E+02  0.98049608553E+02  0.63437734195E+02  0.12318566611E+03  0.47000000000E+01 0. -1.
         -5    1    4    4    0  503  0.30864745926E+02 -0.12401127056E+03 -0.22610646596E+03  0.25976460828E+03  0.47000000000E+01 0.  1.
          5    1    4    4  503    0 -0.28311802721E+02 -0.18152769397E+02 -0.13041110400E+03  0.13475988742E+03  0.47000000000E+01 0. -1.
         -5    1    3    3    0  502  0.36364231385E+02  0.44114431403E+02 -0.89442494469E+00  0.57370117467E+02  0.47000000000E+01 0.  1.
<mgrwt>
<rscale>  0 0.16927101E+03</rscale>
<asrwt>0</asrwt>
<pdfrwt beam="1">  1        2 0.21623540E-01 0.16937746E+03</pdfrwt>
<pdfrwt beam="2">  1       -2 0.66850348E-01 0.16937746E+03</pdfrwt>
<totfact> 0.53260659E+02</totfact>
</mgrwt>
</event>
<event>
 8    1  0.6836165E-004  0.9701206E+02  0.7546771E-02  0.1288300E+00
          1   -1    0    0  501    0  0.00000000000E+00  0.00000000000E+00  0.66522497415E+02  0.66522497415E+02  0.00000000000E+00 0. -1.
         -1   -1    0    0    0  501 -0.00000000000E+00 -0.00000000000E+00 -0.31885296706E+03  0.31885296706E+03  0.00000000000E+00 0.  1.
         23    2    1    2    0    0  0.34164875417E+02  0.29948630579E+01 -0.27073024853E+03  0.28663392586E+03  0.87680853488E+02 0.  0.
         23    2    1    2    0    0 -0.34164875417E+02 -0.29948630579E+01  0.18399778881E+02  0.98741538618E+02  0.90747626243E+02 0.  0.
          5    1    4    4  502    0 -0.25888571631E+02  0.42524450557E+02  0.45176713199E+01  0.50210022809E+02  0.47000000000E+01 0.  1.
         -5    1    3    3    0  503  0.15067459183E+02  0.44706780385E+02 -0.12076390201E+03  0.12973717497E+03  0.47000000000E+01 0.  1.
          5    1    3    3  503    0  0.19097416234E+02 -0.41711917327E+02 -0.14996634651E+03  0.15689675089E+03  0.47000000000E+01 0. -1.
         -5    1    4    4    0  502 -0.82763037855E+01 -0.45519313615E+02  0.13882107561E+02  0.48531515809E+02  0.47000000000E+01 0. -1.
<mgrwt>
<rscale>  0 0.96288377E+02</rscale>
<asrwt>0</asrwt>
<pdfrwt beam="1">  1        1 0.10234231E-01 0.97012059E+02</pdfrwt>
<pdfrwt beam="2">  1       -1 0.49054302E-01 0.97012059E+02</pdfrwt>
<totfact> 0.25160693E+03</totfact>
</mgrwt>
</event>
<event>
 8    1  0.6836165E-004  0.1008150E+03  0.7546771E-02  0.1281379E+00
          2   -1    0    0  501    0  0.00000000000E+00  0.00000000000E+00  0.78508837668E+02  0.78508837668E+02  0.00000000000E+00 0. -1.
         -2   -1    0    0    0  501 -0.00000000000E+00 -0.00000000000E+00 -0.12693487717E+03  0.12693487717E+03  0.00000000000E+00 0.  1.
         23    2    1    2    0    0 -0.37116355664E+01 -0.39033039276E+02 -0.64268905748E+01  0.10101960112E+03  0.92877879467E+02 0.  0.
         23    2    1    2    0    0  0.37116355664E+01  0.39033039276E+02 -0.41999148923E+02  0.10442411371E+03  0.87195829150E+02 0.  0.
          5    1    3    3  502    0  0.35197607208E+02 -0.20927619321E+02  0.24466501492E+02  0.47932624577E+02  0.47000000000E+01 0. -1.
         -5    1    4    4    0  503 -0.29849398401E+02 -0.11401361656E+01  0.86312141459E+01  0.31446372653E+02  0.47000000000E+01 0.  1.
          5    1    4    4  503    0  0.33561033967E+02  0.40173175442E+02 -0.50630363068E+02  0.72977741062E+02  0.47000000000E+01 0. -1.
         -5    1    3    3    0  502 -0.38909242775E+02 -0.18105419955E+02 -0.30893392067E+02  0.53086976542E+02  0.47000000000E+01 0.  1.
<mgrwt>
<rscale>  0 0.99486640E+02</rscale>
<asrwt>0</asrwt>
<pdfrwt beam="1">  1        2 0.12078283E-01 0.10081495E+03</pdfrwt>
<pdfrwt beam="2">  1       -2 0.19528442E-01 0.10081495E+03</pdfrwt>
<totfact> 0.10141105E+04</totfact>
</mgrwt>
</event>
<event>
 8    1  0.6836165E-004  0.9714736E+02  0.7546771E-02  0.1286989E+00
         -1   -1    0    0    0  501 -0.00000000000E+00  0.00000000000E+00  0.41822853470E+02  0.41822853470E+02  0.00000000000E+00 0.  1.
          1   -1    0    0  501    0  0.00000000000E+00 -0.00000000000E+00 -0.32003796360E+03  0.32003796360E+03  0.00000000000E+00 0. -1.
         23    2    1    2    0    0  0.25241537989E+02  0.51185540170E+01 -0.39069345468E+02  0.10373622072E+03  0.92582152159E+02 0.  0.
         23    2    1    2    0    0 -0.25241537989E+02 -0.51185540170E+01 -0.23914576466E+03  0.25812459635E+03  0.93671103607E+02 0.  0.
          5    1    4    4  502    0 -0.20527612767E+02 -0.28526786214E+02 -0.26948063082E+02  0.44535923943E+02  0.47000000000E+01 0. -1.
         -5    1    4    4    0  502 -0.47139252216E+01  0.23408232197E+02 -0.21219770158E+03  0.21358867241E+03  0.47000000000E+01 0.  1.
          5    1    3    3  503    0  0.38380233729E+02 -0.17638232574E+02 -0.57350954796E+02  0.71381871686E+02  0.47000000000E+01 0. -1.
         -5    1    3    3    0  503 -0.13138695741E+02  0.22756786591E+02  0.18281609328E+02  0.32354349033E+02  0.47000000000E+01 0.  1.
<mgrwt>
<rscale>  0 0.96883907E+02</rscale>
<asrwt>0</asrwt>
<pdfrwt beam="1">  1        1 0.49236609E-01 0.97147365E+02</pdfrwt>
<pdfrwt beam="2">  1       -1 0.64342852E-02 0.97147365E+02</pdfrwt>
<totfact> 0.89579142E+03</totfact>
</mgrwt>
</event>
<event>
 8    1  0.6836165E-004  0.1015643E+03  0.7546771E-02  0.1278785E+00
         -2   -1    0    0    0  501 -0.00000000000E+00  0.00000000000E+00  0.12121003492E+02  0.12121003492E+02  0.00000000000E+00 0.  1.
          2   -1    0    0  501    0  0.00000000000E+00 -0.00000000000E+00 -0.84979866517E+03  0.84979866517E+03  0.00000000000E+00 0. -1.
         23    2    1    2    0    0 -0.14972122468E+02 -0.32411516064E+02 -0.33609836092E+03  0.35016084113E+03  0.91519591465E+02 0.  0.
         23    2    1    2    0    0  0.14972122468E+02  0.32411516064E+02 -0.50157930076E+03  0.51175882754E+03  0.95082236962E+02 0.  0.
          5    1    4    4  502    0  0.49343526833E+02  0.36085263194E+02 -0.39185319010E+03  0.39662065308E+03  0.47000000000E+01 0.  1.
         -5    1    3    3    0  503  0.20197151745E+02 -0.48140114833E+02 -0.12534226335E+03  0.13586084269E+03  0.47000000000E+01 0.  1.
          5    1    3    3  503    0 -0.35169274213E+02  0.15728598768E+02 -0.21075609757E+03  0.21429999844E+03  0.47000000000E+01 0. -1.
         -5    1    4    4    0  502 -0.34371404365E+02 -0.36737471294E+01 -0.10972611066E+03  0.11513817446E+03  0.47000000000E+01 0. -1.
<mgrwt>
<rscale>  0 0.10072204E+03</rscale>
<asrwt>0</asrwt>
<pdfrwt beam="1">  1        2 0.13073832E+00 0.10156428E+03</pdfrwt>
<pdfrwt beam="2">  1       -2 0.18647689E-02 0.10156428E+03</pdfrwt>
<totfact> 0.25911994E+04</totfact>
</mgrwt>
</event>
<event>
 8    1  0.6836165E-004  0.1025241E+03  0.7546771E-02  0.1275375E+00
          2   -1    0    0  501    0  0.00000000000E+00  0.00000000000E+00  0.13861713980E+03  0.13861713980E+03  0.00000000000E+00 0. -1.
         -2   -1    0    0    0  501 -0.00000000000E+00 -0.00000000000E+00 -0.13206457711E+03  0.13206457711E+03  0.00000000000E+00 0.  1.
         23    2    1    2    0    0 -0.27939133793E+02  0.38237584770E+02  0.91926566236E+02  0.13726539056E+03  0.90269517438E+02 0.  0.
         23    2    1    2    0    0  0.27939133793E+02 -0.38237584770E+02 -0.85374003550E+02  0.13341632636E+03  0.90931224395E+02 0.  0.
          5    1    3    3  502    0 -0.39624551969E+02 -0.10694394067E+02  0.71883138007E+02  0.82908085932E+02  0.47000000000E+01 0. -1.
         -5    1    3    3    0  502  0.11685418176E+02  0.48931978837E+02  0.20043428230E+02  0.54357304625E+02  0.47000000000E+01 0.  1.
          5    1    4    4  503    0 -0.23701988679E+02 -0.95198860537E+01 -0.66207239517E+02  0.71118921970E+02  0.47000000000E+01 0. -1.
         -5    1    4    4    0  503  0.51641122471E+02 -0.28717698717E+02 -0.19166764034E+02  0.62297404386E+02  0.47000000000E+01 0.  1.
<mgrwt>
<rscale>  0 0.10237720E+03</rscale>
<asrwt>0</asrwt>
<pdfrwt beam="1">  1        2 0.21325714E-01 0.10252412E+03</pdfrwt>
<pdfrwt beam="2">  1       -2 0.20317627E-01 0.10252412E+03</pdfrwt>
<totfact> 0.49380406E+03</totfact>
</mgrwt>
</event>
<event>
 8    1  0.6836165E-004  0.1294977E+03  0.7546771E-02  0.1239468E+00
          1   -1    0    0  501    0  0.00000000000E+00  0.00000000000E+00  0.64539382785E+02  0.64539382785E+02  0.00000000000E+00 0. -1.
         -1   -1    0    0    0  501 -0.00000000000E+00 -0.00000000000E+00 -0.22331969205E+03  0.22331969205E+03  0.00000000000E+00 0.  1.
         23    2    1    2    0    0 -0.70750556962E+01  0.51113191656E+02 -0.12418247427E+03  0.17941831972E+03  0.11877302623E+03 0.  0.
         23    2    1    2    0    0  0.70750556962E+01 -0.51113191656E+02 -0.34597834995E+02  0.10844075511E+03  0.88880663864E+02 0.  0.
          5    1    3    3  502    0 -0.52608900962E+02  0.62859837852E+02 -0.82715176108E+02  0.11654589668E+03  0.47000000000E+01 0. -1.
         -5    1    3    3    0  502  0.45533845265E+02 -0.11746646197E+02 -0.41467298158E+02  0.62872423033E+02  0.47000000000E+01 0.  1.
          5    1    4    4  503    0 -0.35515713509E+02 -0.11264623171E+00 -0.16315018433E+02  0.39365574068E+02  0.47000000000E+01 0. -1.
         -5    1    4    4    0  503  0.42590769205E+02 -0.51000545424E+02 -0.18282816562E+02  0.69075181046E+02  0.47000000000E+01 0.  1.
<mgrwt>
<rscale>  0 0.12222688E+03</rscale>
<asrwt>0</asrwt>
<pdfrwt beam="1">  1        1 0.99291358E-02 0.12949767E+03</pdfrwt>
<pdfrwt beam="2">  1       -1 0.34356876E-01 0.12949767E+03</pdfrwt>
<totfact> 0.49767807E+03</totfact>
</mgrwt>
</event>
<event>
 8    1  0.6836165E-004  0.1761409E+03  0.7546771E-02  0.1177128E+00
         -1   -1    0    0    0  501 -0.00000000000E+00  0.00000000000E+00  0.35512716469E+02  0.35512716469E+02  0.00000000000E+00 0.  1.
          1   -1    0    0  501    0  0.00000000000E+00 -0.00000000000E+00 -0.82438059811E+03  0.82438059811E+03  0.00000000000E+00 0. -1.
         23    2    1    2    0    0 -0.55495499416E+02 -0.11287927870E+03 -0.31105151634E+03  0.35746140833E+03  0.12330503076E+03 0.  0.
         23    2    1    2    0    0  0.55495499416E+02  0.11287927870E+03 -0.47781636531E+03  0.50243190626E+03  0.91147459947E+02 0.  0.
          5    1    3    3  502    0  0.27573338446E+02 -0.80385742217E+01 -0.15403613950E+02  0.32928240027E+02  0.47000000000E+01 0. -1.
         -5    1    4    4    0  503  0.22066352554E+02 -0.62919617841E+01 -0.31537739887E+02  0.39283988281E+02  0.47000000000E+01 0.  1.
          5    1    4    4  503    0  0.33429146862E+02  0.11917124049E+03 -0.44627862542E+03  0.46314791798E+03  0.47000000000E+01 0. -1.
         -5    1    3    3    0  502 -0.83068837862E+02 -0.10484070448E+03 -0.29564790239E+03  0.32453316830E+03  0.47000000000E+01 0.  1.
<mgrwt>
<rscale>  0 0.17069206E+03</rscale>
<asrwt>0</asrwt>
<pdfrwt beam="1">  1        1 0.12682777E+00 0.17614089E+03</pdfrwt>
<pdfrwt beam="2">  1       -1 0.54634953E-02 0.17614089E+03</pdfrwt>
<totfact> 0.33422768E+03</totfact>
</mgrwt>
</event>
<event>
 8    1  0.6836165E-004  0.9406277E+02  0.7546771E-02  0.1294424E+00
          2   -1    0    0  501    0  0.00000000000E+00  0.00000000000E+00  0.37524929646E+03  0.37524929646E+03  0.00000000000E+00 0. -1.
         -2   -1    0    0    0  501 -0.00000000000E+00 -0.00000000000E+00 -0.96395336332E+02  0.96395336332E+02  0.00000000000E+00 0.  1.
         23    2    1    2    0    0 -0.21445048643E+01  0.16500184895E+02 -0.66563355259E+02  0.11364892539E+03  0.90601009797E+02 0.  0.
         23    2    1    2    0    0  0.21445048643E+01 -0.16500184895E+02  0.34541731538E+03  0.35799570740E+03  0.92579423994E+02 0.  0.
          5    1    4    4  502    0 -0.44928587515E+02 -0.68927035545E+01  0.17595158164E+03  0.18178871368E+03  0.47000000000E+01 0. -1.
         -5    1    4    4    0  502  0.47073092379E+02 -0.96074813403E+01  0.16946573374E+03  0.17620699372E+03  0.47000000000E+01 0.  1.
          5    1    3    3  503    0 -0.26501724080E+02 -0.25949057174E+02 -0.99940586915E+01  0.38699691944E+02  0.47000000000E+01 0. -1.
         -5    1    3    3    0  503  0.24357219216E+02  0.42449242068E+02 -0.56569296567E+02  0.74949233446E+02  0.47000000000E+01 0.  1.
<mgrwt>
<rscale>  0 0.93572310E+02</rscale>
<asrwt>0</asrwt>
<pdfrwt beam="1">  1        2 0.57730660E-01 0.94062770E+02</pdfrwt>
<pdfrwt beam="2">  1       -2 0.14830052E-01 0.94062770E+02</pdfrwt>
<totfact> 0.28537497E+03</totfact>
</mgrwt>
</event>
<event>
 8    1  0.6836165E-004  0.1142766E+03  0.7546771E-02  0.1253748E+00
          2   -1    0    0  501    0  0.00000000000E+00  0.00000000000E+00  0.32909665545E+03  0.32909665545E+03  0.00000000000E+00 0. -1.
         -2   -1    0    0    0  501 -0.00000000000E+00 -0.00000000000E+00 -0.40115538440E+02  0.40115538440E+02  0.00000000000E+00 0.  1.
         23    2    1    2    0    0 -0.47655920400E+02 -0.42503592290E+02  0.17425683984E+03  0.20728384294E+03  0.92322820624E+02 0.  0.
         23    2    1    2    0    0  0.47655920400E+02  0.42503592290E+02  0.11472427717E+03  0.16192835095E+03  0.94770717848E+02 0.  0.
          5    1    4    4  502    0 -0.14772649478E+02 -0.18166287520E+02  0.42361482835E+02  0.48629521927E+02  0.47000000000E+01 0. -1.
         -5    1    3    3    0  503 -0.79397758184E+01  0.22816734224E+02  0.90502711027E+02  0.93789520225E+02  0.47000000000E+01 0.  1.
          5    1    3    3  503    0 -0.39716144581E+02 -0.65320326514E+02  0.83754128810E+02  0.11349432272E+03  0.47000000000E+01 0. -1.
         -5    1    4    4    0  502  0.62428569878E+02  0.60669879811E+02  0.72362794338E+02  0.11329882902E+03  0.47000000000E+01 0.  1.
<mgrwt>
<rscale>  0 0.11376773E+03</rscale>
<asrwt>0</asrwt>
<pdfrwt beam="1">  1        2 0.50630253E-01 0.11427656E+03</pdfrwt>
<pdfrwt beam="2">  1       -2 0.61716215E-02 0.11427656E+03</pdfrwt>
<totfact> 0.13011902E+04</totfact>
</mgrwt>
</event>
<event>
 8    1  0.6836165E-004  0.1216217E+03  0.7546771E-02  0.1244278E+00
         -1   -1    0    0    0  501 -0.00000000000E+00  0.00000000000E+00  0.56001934907E+03  0.56001934907E+03  0.00000000000E+00 0.  1.
          1   -1    0    0  501    0  0.00000000000E+00 -0.00000000000E+00 -0.27235982131E+02  0.27235982131E+02  0.00000000000E+00 0. -1.
         23    2    1    2    0    0  0.16518379974E+02  0.59096733469E+02  0.16376627736E+03  0.19871259513E+03  0.94350522408E+02 0.  0.
         23    2    1    2    0    0 -0.16518379974E+02 -0.59096733469E+02  0.36901708958E+03  0.38854273608E+03  0.10500745007E+03 0.  0.
          5    1    3    3  502    0 -0.99231231907E+01  0.68905407062E+02  0.15300424500E+03  0.16816305327E+03  0.47000000000E+01 0. -1.
         -5    1    3    3    0  502  0.26441503164E+02 -0.98086735928E+01  0.10762032355E+02  0.30549541857E+02  0.47000000000E+01 0.  1.
          5    1    4    4  503    0 -0.30664549441E+02  0.86342295851E+01  0.35658935301E+02  0.48046999696E+02  0.47000000000E+01 0. -1.
         -5    1    4    4    0  503  0.14146169467E+02 -0.67730963054E+02  0.33335815428E+03  0.34049573638E+03  0.47000000000E+01 0.  1.
<mgrwt>
<rscale>  0 0.11928721E+03</rscale>
<asrwt>0</asrwt>
<pdfrwt beam="1">  1        1 0.41901515E-02 0.12162173E+03</pdfrwt>
<pdfrwt beam="2">  1       -1 0.86156815E-01 0.12162173E+03</pdfrwt>
<totfact> 0.28491449E+03</totfact>
</mgrwt>
</event>
<event>
 8    1  0.6836165E-004  0.1232865E+03  0.7546771E-02  0.1237941E+00
         -2   -1    0    0    0  501 -0.00000000000E+00  0.00000000000E+00  0.45296944433E+03  0.45296944433E+03  0.00000000000E+00 0.  1.
          2   -1    0    0  501    0  0.00000000000E+00 -0.00000000000E+00 -0.42988862210E+02  0.42988862210E+02  0.00000000000E+00 0. -1.
         23    2    1    2    0    0  0.81899373658E+02 -0.42424520646E+01  0.32213918983E+03  0.34492496134E+03  0.92054687717E+02 0.  0.
         23    2    1    2    0    0 -0.81899373658E+02  0.42424520646E+01  0.87841392295E+02  0.15103334520E+03  0.91484727448E+02 0.  0.
          5    1    4    4  502    0 -0.95392080254E+02  0.23574629876E+02  0.65266088669E+02  0.11805576851E+03  0.47000000000E+01 0. -1.
         -5    1    4    4    0  502  0.13492706596E+02 -0.19332177811E+02  0.22575303625E+02  0.32977576685E+02  0.47000000000E+01 0.  1.
          5    1    3    3  503    0  0.51081781870E+02 -0.46765106841E+02  0.15942506733E+03  0.17388147040E+03  0.47000000000E+01 0. -1.
         -5    1    3    3    0  503  0.30817591788E+02  0.42522654776E+02  0.16271412250E+03  0.17104349094E+03  0.47000000000E+01 0.  1.
<mgrwt>
<rscale>  0 0.12318016E+03</rscale>
<asrwt>0</asrwt>
<pdfrwt beam="1">  1        2 0.66136714E-02 0.12328654E+03</pdfrwt>
<pdfrwt beam="2">  1       -2 0.69687604E-01 0.12328654E+03</pdfrwt>
<totfact> 0.20056263E+03</totfact>
</mgrwt>
</event>
<event>
 8    1  0.6836165E-004  0.1214660E+03  0.7546771E-02  0.1241184E+00
         -2   -1    0    0    0  501 -0.00000000000E+00  0.00000000000E+00  0.11120232405E+03  0.11120232405E+03  0.00000000000E+00 0.  1.
          2   -1    0    0  501    0  0.00000000000E+00 -0.00000000000E+00 -0.36421420127E+03  0.36421420127E+03  0.00000000000E+00 0. -1.
         23    2    1    2    0    0 -0.74840381786E+02  0.27938029424E+02  0.63327933920E+02  0.13698326025E+03  0.91500656500E+02 0.  0.
         23    2    1    2    0    0  0.74840381786E+02 -0.27938029424E+02 -0.31633981113E+03  0.33843326507E+03  0.89914306789E+02 0.  0.
          5    1    3    3  502    0 -0.61329218613E+01 -0.29554885683E+02  0.79865898892E+01  0.31574984028E+02  0.47000000000E+01 0. -1.
         -5    1    4    4    0  503  0.22436619791E+02  0.30401321235E+02 -0.67637356372E+02  0.77617937473E+02  0.47000000000E+01 0.  1.
          5    1    4    4  503    0  0.52403761995E+02 -0.58339350658E+02 -0.24870245476E+03  0.26081532760E+03  0.47000000000E+01 0. -1.
         -5    1    3    3    0  502 -0.68707459925E+02  0.57492915107E+02  0.55341344031E+02  0.10540827622E+03  0.47000000000E+01 0.  1.
<mgrwt>
<rscale>  0 0.12116727E+03</rscale>
<asrwt>0</asrwt>
<pdfrwt beam="1">  1        2 0.56032954E-01 0.12146599E+03</pdfrwt>
<pdfrwt beam="2">  1       -2 0.17108050E-01 0.12146599E+03</pdfrwt>
<totfact> 0.23579384E+03</totfact>
</mgrwt>
</event>
<event>
 8    1  0.6836165E-004  0.1045592E+03  0.7546771E-02  0.1271239E+00
         -1   -1    0    0    0  501 -0.00000000000E+00  0.00000000000E+00  0.77127426232E+02  0.77127426232E+02  0.00000000000E+00 0.  1.
          1   -1    0    0  501    0  0.00000000000E+00 -0.00000000000E+00 -0.34453413893E+03  0.34453413893E+03  0.00000000000E+00 0. -1.
         23    2    1    2    0    0 -0.25848401943E+02 -0.42071619839E+02 -0.29585159781E+03  0.31378464236E+03  0.92165464112E+02 0.  0.
         23    2    1    2    0    0  0.25848401943E+02  0.42071619839E+02  0.28444885119E+02  0.10787692280E+03  0.91597805124E+02 0.  0.
          5    1    4    4  502    0  0.40048501285E+02 -0.14233277152E+02 -0.63118780260E+00  0.42766307202E+02  0.47000000000E+01 0. -1.
         -5    1    4    4    0  502 -0.14200099342E+02  0.56304896991E+02  0.29076072922E+02  0.65110615594E+02  0.47000000000E+01 0.  1.
          5    1    3    3  503    0 -0.57614202069E+02 -0.27635042411E+02 -0.13938572196E+03  0.15340652311E+03  0.47000000000E+01 0. -1.
         -5    1    3    3    0  503  0.31765800126E+02 -0.14436577428E+02 -0.15646587586E+03  0.16037811925E+03  0.47000000000E+01 0.  1.
<mgrwt>
<rscale>  0 0.10443400E+03</rscale>
<asrwt>0</asrwt>
<pdfrwt beam="1">  1        1 0.53005252E-01 0.10455924E+03</pdfrwt>
<pdfrwt beam="2">  1       -1 0.11865758E-01 0.10455924E+03</pdfrwt>
<totfact> 0.32743222E+03</totfact>
</mgrwt>
</event>
<event>
 8    1  0.6836165E-004  0.1834463E+03  0.7546771E-02  0.1164807E+00
         -1   -1    0    0    0  501 -0.00000000000E+00  0.00000000000E+00  0.74731316551E+02  0.74731316551E+02  0.00000000000E+00 0.  1.
          1   -1    0    0  501    0  0.00000000000E+00 -0.00000000000E+00 -0.59487798707E+03  0.59487798707E+03  0.00000000000E+00 0. -1.
         23    2    1    2    0    0 -0.21739570100E+02  0.15645384480E+03 -0.42754315407E+03  0.46523725816E+03  0.93285279275E+02 0.  0.
         23    2    1    2    0    0  0.21739570100E+02 -0.15645384480E+03 -0.92603516447E+02  0.20437204546E+03  0.90786052043E+02 0.  0.
          5    1    3    3  502    0 -0.93954775114E+00  0.16125118188E+03 -0.38419853575E+03  0.41669345001E+03  0.47000000000E+01 0. -1.
         -5    1    3    3    0  502 -0.20800022349E+02 -0.47973370792E+01 -0.43344618319E+02  0.48543808153E+02  0.47000000000E+01 0.  1.
          5    1    4    4  503    0  0.17239137538E+02 -0.10459642614E+02  0.12660619472E+02  0.24268771541E+02  0.47000000000E+01 0. -1.
         -5    1    4    4    0  503  0.45004325620E+01 -0.14599420218E+03 -0.10526413592E+03  0.18010327392E+03  0.47000000000E+01 0.  1.
<mgrwt>
<rscale>  0 0.18313098E+03</rscale>
<asrwt>0</asrwt>
<pdfrwt beam="1">  1        1 0.91519685E-01 0.18344633E+03</pdfrwt>
<pdfrwt beam="2">  1       -1 0.11497126E-01 0.18344633E+03</pdfrwt>
<totfact> 0.17326044E+03</totfact>
</mgrwt>
</event>
<event>
 8    1  0.6836165E-004  0.2014783E+03  0.7546771E-02  0.1148791E+00
          2   -1    0    0  501    0  0.00000000000E+00  0.00000000000E+00  0.17519974619E+04  0.17519974619E+04  0.00000000000E+00 0. -1.
         -2   -1    0    0    0  501 -0.00000000000E+00 -0.00000000000E+00 -0.23376515644E+02  0.23376515644E+02  0.00000000000E+00 0.  1.
         23    2    1    2    0    0 -0.18098685852E+02  0.17654061929E+03  0.75011890654E+03  0.77634457679E+03  0.92403329317E+02 0.  0.
         23    2    1    2    0    0  0.18098685852E+02 -0.17654061929E+03  0.97850203969E+03  0.99902940073E+03  0.95390508729E+02 0.  0.
          5    1    4    4  502    0 -0.28857909426E+02 -0.13647056003E+03  0.67547094419E+03  0.68973913846E+03  0.47000000000E+01 0. -1.
         -5    1    4    4    0  502  0.46956595277E+02 -0.40070059261E+02  0.30303109550E+03  0.30929026227E+03  0.47000000000E+01 0.  1.
          5    1    3    3  503    0 -0.18903543759E+02  0.14342832358E+03  0.70754835757E+03  0.72220204671E+03  0.47000000000E+01 0. -1.
         -5    1    3    3    0  503  0.80485790706E+00  0.33112295714E+02  0.42570548973E+02  0.54142530081E+02  0.47000000000E+01 0.  1.
<mgrwt>
<rscale>  0 0.20112813E+03</rscale>
<asrwt>0</asrwt>
<pdfrwt beam="1">  1        2 0.26953797E+00 0.20147829E+03</pdfrwt>
<pdfrwt beam="2">  1       -2 0.35963884E-02 0.20147829E+03</pdfrwt>
<totfact> 0.32344704E+03</totfact>
</mgrwt>
</event>
<event>
 8    1  0.6836165E-004  0.9649137E+02  0.7546771E-02  0.1288741E+00
         -1   -1    0    0    0  501 -0.00000000000E+00  0.00000000000E+00  0.11898303570E+03  0.11898303570E+03  0.00000000000E+00 0.  1.
          1   -1    0    0  501    0  0.00000000000E+00 -0.00000000000E+00 -0.12685008529E+03  0.12685008529E+03  0.00000000000E+00 0. -1.
         23    2    1    2    0    0 -0.20582117920E+02  0.21646415040E+02  0.73129564239E+02  0.12107236881E+03  0.91751809036E+02 0.  0.
         23    2    1    2    0    0  0.20582117920E+02 -0.21646415040E+02 -0.80996613828E+02  0.12476075217E+03  0.90069989280E+02 0.  0.
          5    1    4    4  502    0  0.51944887812E+02  0.11144573737E+01 -0.62944017974E+02  0.81752998622E+02  0.47000000000E+01 0. -1.
         -5    1    4    4    0  502 -0.31362769892E+02 -0.22760872414E+02 -0.18052595854E+02  0.43007753550E+02  0.47000000000E+01 0.  1.
          5    1    3    3  503    0 -0.35294786251E+02  0.50273325743E+02  0.34630654842E+02  0.70671786963E+02  0.47000000000E+01 0.  1.
         -5    1    3    3    0  503  0.14712668330E+02 -0.28626910703E+02  0.38498909397E+02  0.50400581848E+02  0.47000000000E+01 0. -1.
<mgrwt>
<rscale>  0 0.96089424E+02</rscale>
<asrwt>0</asrwt>
<pdfrwt beam="1">  1        1 0.19515398E-01 0.96491374E+02</pdfrwt>
<pdfrwt beam="2">  1       -1 0.18305082E-01 0.96491374E+02</pdfrwt>
<totfact> 0.57068935E+03</totfact>
</mgrwt>
</event>
<event>
 8    1  0.6836165E-004  0.1304416E+03  0.7546771E-02  0.1227026E+00
         -1   -1    0    0    0  501 -0.00000000000E+00  0.00000000000E+00  0.47803581597E+02  0.47803581597E+02  0.00000000000E+00 0.  1.
          1   -1    0    0  501    0  0.00000000000E+00 -0.00000000000E+00 -0.72528094613E+03  0.72528094613E+03  0.00000000000E+00 0. -1.
         23    2    1    2    0    0 -0.36580767968E+02  0.86050908219E+02 -0.62666820948E+02  0.14471402892E+03  0.90951131541E+02 0.  0.
         23    2    1    2    0    0  0.36580767968E+02 -0.86050908219E+02 -0.61481054359E+03  0.62837049881E+03  0.90080896279E+02 0.  0.
          5    1    3    3  502    0 -0.41095712915E+02  0.26175482603E+02 -0.68511847698E+02  0.84201999884E+02  0.47000000000E+01 0. -1.
         -5    1    3    3    0  502  0.45149449467E+01  0.59875425616E+02  0.58450267499E+01  0.60512029037E+02  0.47000000000E+01 0.  1.
          5    1    4    4  503    0  0.63351699341E+02 -0.36396321097E+02 -0.35158706503E+03  0.35912906356E+03  0.47000000000E+01 0. -1.
         -5    1    4    4    0  503 -0.26770931373E+02 -0.49654587121E+02 -0.26322347856E+03  0.26924143525E+03  0.47000000000E+01 0.  1.
<mgrwt>
<rscale>  0 0.13029005E+03</rscale>
<asrwt>0</asrwt>
<pdfrwt beam="1">  1        1 0.11158168E+00 0.13044163E+03</pdfrwt>
<pdfrwt beam="2">  1       -1 0.73543973E-02 0.13044163E+03</pdfrwt>
<totfact> 0.25702806E+03</totfact>
</mgrwt>
</event>
<event>
 8    1  0.6836165E-004  0.1139272E+03  0.7546771E-02  0.1255433E+00
         -1   -1    0    0    0  501 -0.00000000000E+00  0.00000000000E+00  0.48431974974E+02  0.48431974974E+02  0.00000000000E+00 0.  1.
          1   -1    0    0  501    0  0.00000000000E+00 -0.00000000000E+00 -0.32971214809E+03  0.32971214809E+03  0.00000000000E+00 0. -1.
         23    2    1    2    0    0  0.54846491950E+02 -0.24198578843E+02 -0.23104972359E+03  0.25761088973E+03  0.96879754546E+02 0.  0.
         23    2    1    2    0    0 -0.54846491950E+02  0.24198578843E+02 -0.50230449530E+02  0.12053323333E+03  0.91713975929E+02 0.  0.
          5    1    4    4  502    0 -0.85354714370E+00  0.42695141724E+02 -0.46255500377E+02  0.63128955201E+02  0.47000000000E+01 0. -1.
         -5    1    3    3    0  503  0.14325128837E+02 -0.51187520141E+02 -0.17627896483E+03  0.18417854103E+03  0.47000000000E+01 0.  1.
          5    1    3    3  503    0  0.40521363112E+02  0.26988941298E+02 -0.54770758757E+02  0.73432348700E+02  0.47000000000E+01 0. -1.
         -5    1    4    4    0  502 -0.53992944806E+02 -0.18496562881E+02 -0.39749491526E+01  0.57404278133E+02  0.47000000000E+01 0.  1.
<mgrwt>
<rscale>  0 0.11282139E+03</rscale>
<asrwt>0</asrwt>
<pdfrwt beam="1">  1        1 0.50724947E-01 0.11392715E+03</pdfrwt>
<pdfrwt beam="2">  1       -1 0.74510730E-02 0.11392715E+03</pdfrwt>
<totfact> 0.70254989E+03</totfact>
</mgrwt>
</event>
<event>
 8    1  0.6836165E-004  0.1029253E+03  0.7546771E-02  0.1276538E+00
          2   -1    0    0  501    0  0.00000000000E+00  0.00000000000E+00  0.63830969361E+03  0.63830969361E+03  0.00000000000E+00 0. -1.
         -2   -1    0    0    0  501 -0.00000000000E+00 -0.00000000000E+00 -0.15895274630E+02  0.15895274630E+02  0.00000000000E+00 0.  1.
         23    2    1    2    0    0 -0.28274998255E+02 -0.23029938247E+02  0.30490082916E+03  0.32042586265E+03  0.91533405105E+02 0.  0.
         23    2    1    2    0    0  0.28274998255E+02  0.23029938247E+02  0.31751358982E+03  0.33377910559E+03  0.96248418306E+02 0.  0.
          5    1    4    4  502    0 -0.38392448577E+01  0.46430347471E+02  0.78229539639E+02  0.91172736272E+02  0.47000000000E+01 0. -1.
         -5    1    3    3    0  503  0.21178111343E+02 -0.37919691745E+02  0.10118986858E+03  0.11021748920E+03  0.47000000000E+01 0.  1.
          5    1    3    3  503    0 -0.49453109598E+02  0.14889753498E+02  0.20371096058E+03  0.21020837345E+03  0.47000000000E+01 0. -1.
         -5    1    4    4    0  502  0.32114243113E+02 -0.23400409224E+02  0.23928405018E+03  0.24260636931E+03  0.47000000000E+01 0.  1.
<mgrwt>
<rscale>  0 0.10180848E+03</rscale>
<asrwt>0</asrwt>
<pdfrwt beam="1">  1        2 0.98201471E-01 0.10292527E+03</pdfrwt>
<pdfrwt beam="2">  1       -2 0.24454274E-02 0.10292527E+03</pdfrwt>
<totfact> 0.24694249E+04</totfact>
</mgrwt>
</event>
<event>
 8    1  0.6836165E-004  0.9708146E+02  0.7546771E-02  0.1287433E+00
         -1   -1    0    0    0  501 -0.00000000000E+00  0.00000000000E+00  0.62960829057E+02  0.62960829057E+02  0.00000000000E+00 0.  1.
          1   -1    0    0  501    0  0.00000000000E+00 -0.00000000000E+00 -0.19503654793E+03  0.19503654793E+03  0.00000000000E+00 0. -1.
         23    2    1    2    0    0 -0.19120503601E+02 -0.26391239494E+02 -0.25997726271E+01  0.97116261444E+02  0.91447899042E+02 0.  0.
         23    2    1    2    0    0  0.19120503601E+02  0.26391239494E+02 -0.12947594625E+03  0.16088111555E+03  0.89758684829E+02 0.  0.
          5    1    3    3  502    0  0.29407130772E+02 -0.12469224531E+02 -0.25828019090E+02  0.41345344003E+02  0.47000000000E+01 0. -1.
         -5    1    3    3    0  502 -0.48527634373E+02 -0.13922014963E+02  0.23228246462E+02  0.55770917441E+02  0.47000000000E+01 0.  1.
          5    1    4    4  503    0  0.37578471774E+02  0.13046954145E+02 -0.13156852599E+03  0.13753083866E+03  0.47000000000E+01 0. -1.
         -5    1    4    4    0  503 -0.18457968172E+02  0.13344285349E+02  0.20925797371E+01  0.23350276883E+02  0.47000000000E+01 0.  1.
<mgrwt>
<rscale>  0 0.96681618E+02</rscale>
<asrwt>0</asrwt>
<pdfrwt beam="1">  1        1 0.30005623E-01 0.97081458E+02</pdfrwt>
<pdfrwt beam="2">  1       -1 0.96862813E-02 0.97081458E+02</pdfrwt>
<totfact> 0.89145937E+03</totfact>
</mgrwt>
</event>
<event>
 8    1  0.6836165E-004  0.9476000E+02  0.7546771E-02  0.1294200E+00
          1   -1    0    0  501    0  0.00000000000E+00  0.00000000000E+00  0.25794835750E+03  0.25794835750E+03  0.00000000000E+00 0. -1.
         -1   -1    0    0    0  501 -0.00000000000E+00 -0.00000000000E+00 -0.56947529082E+02  0.56947529082E+02  0.00000000000E+00 0.  1.
         23    2    1    2    0    0  0.72907367823E+01 -0.18223247283E+02  0.20339878491E+03  0.22438922085E+03  0.92704989850E+02 0.  0.
         23    2    1    2    0    0 -0.72907367823E+01  0.18223247283E+02 -0.23979564988E+01  0.90506665732E+02  0.88320239822E+02 0.  0.
          5    1    3    3  502    0  0.36721017715E+01  0.32211667921E+02  0.13663215625E+03  0.14050449105E+03  0.47000000000E+01 0. -1.
         -5    1    3    3    0  502  0.36186350108E+01 -0.50434915204E+02  0.66766628661E+02  0.83884729800E+02  0.47000000000E+01 0.  1.
          5    1    4    4  503    0  0.15326712937E+02  0.47920210900E+02  0.87135034890E+01  0.51276406711E+02  0.47000000000E+01 0. -1.
         -5    1    4    4    0  503 -0.22617449719E+02 -0.29696963617E+02 -0.11111459988E+02  0.39230259022E+02  0.47000000000E+01 0.  1.
<mgrwt>
<rscale>  0 0.93670059E+02</rscale>
<asrwt>0</asrwt>
<pdfrwt beam="1">  1        1 0.39684362E-01 0.94759995E+02</pdfrwt>
<pdfrwt beam="2">  1       -1 0.87611585E-02 0.94759995E+02</pdfrwt>
<totfact> 0.73466795E+03</totfact>
</mgrwt>
</event>
<event>
 8    1  0.6836165E-004  0.1071245E+03  0.7546771E-02  0.1267878E+00
          2   -1    0    0  501    0  0.00000000000E+00  0.00000000000E+00  0.19354220897E+02  0.19354220897E+02  0.00000000000E+00 0. -1.
         -2   -1    0    0    0  501 -0.00000000000E+00 -0.00000000000E+00 -0.58139246325E+03  0.58139246325E+03  0.00000000000E+00 0.  1.
         23    2    1    2    0    0 -0.12604261058E+02  0.56557413727E+02 -0.32476814617E+03  0.34197955452E+03  0.90100269150E+02 0.  0.
         23    2    1    2    0    0  0.12604261058E+02 -0.56557413727E+02 -0.23727009618E+03  0.25876712962E+03  0.85473506929E+02 0.  0.
          5    1    4    4  502    0  0.33466603063E+02 -0.54873764591E+02 -0.22501490713E+03  0.23406183369E+03  0.47000000000E+01 0. -1.
         -5    1    3    3    0  503 -0.20797441329E+02 -0.74435558895E+01 -0.20154147819E+03  0.20280285383E+03  0.47000000000E+01 0.  1.
          5    1    3    3  503    0  0.81931802711E+01  0.64000969617E+02 -0.12322666798E+03  0.13917670070E+03  0.47000000000E+01 0. -1.
         -5    1    4    4    0  502 -0.20862342005E+02 -0.16836491356E+01 -0.12255189055E+02  0.24705295932E+02  0.47000000000E+01 0.  1.
<mgrwt>
<rscale>  0 0.10614592E+03</rscale>
<asrwt>0</asrwt>
<pdfrwt beam="1">  1        2 0.29775722E-02 0.10712454E+03</pdfrwt>
<pdfrwt beam="2">  1       -2 0.89445003E-01 0.10712454E+03</pdfrwt>
<totfact> 0.32759708E+03</totfact>
</mgrwt>
</event>
<event>
 8    1  0.6836165E-004  0.1172928E+03  0.7546771E-02  0.1248045E+00
          1   -1    0    0  501    0  0.00000000000E+00  0.00000000000E+00  0.25999891434E+02  0.25999891434E+02  0.00000000000E+00 0. -1.
         -1   -1    0    0    0  501 -0.00000000000E+00 -0.00000000000E+00 -0.80689518176E+03  0.80689518176E+03  0.00000000000E+00 0.  1.
         23    2    1    2    0    0 -0.51553731901E+02 -0.51284072693E+02 -0.14315243018E+03  0.18445574194E+03  0.90793496926E+02 0.  0.
         23    2    1    2    0    0  0.51553731901E+02  0.51284072693E+02 -0.63774286014E+03  0.64843933125E+03  0.92031338478E+02 0.  0.
          5    1    4    4  502    0  0.35509021395E+02 -0.83682941873E+01 -0.90330416154E+02  0.97532522938E+02  0.47000000000E+01 0. -1.
         -5    1    3    3    0  503  0.44831813609E-01  0.21553500231E+02 -0.53439126255E+02  0.57813368670E+02  0.47000000000E+01 0.  1.
          5    1    3    3  503    0 -0.51598563715E+02 -0.72837572924E+02 -0.89713303928E+02  0.12664237327E+03  0.47000000000E+01 0. -1.
         -5    1    4    4    0  502  0.16044710507E+02  0.59652366880E+02 -0.54741244399E+03  0.55090680831E+03  0.47000000000E+01 0.  1.
<mgrwt>
<rscale>  0 0.11704991E+03</rscale>
<asrwt>0</asrwt>
<pdfrwt beam="1">  1        1 0.39999834E-02 0.11729284E+03</pdfrwt>
<pdfrwt beam="2">  1       -1 0.12413772E+00 0.11729284E+03</pdfrwt>
<totfact> 0.13464446E+03</totfact>
</mgrwt>
</event>
<event>
 8    1  0.1162239E-003  0.1056389E+03  0.7546771E-02  0.1269661E+00
          1   -1    0    0  501    0  0.00000000000E+00  0.00000000000E+00  0.48856145700E+03  0.48856145700E+03  0.00000000000E+00 0. -1.
         -1   -1    0    0    0  501 -0.00000000000E+00 -0.00000000000E+00 -0.62593069533E+02  0.62593069533E+02  0.00000000000E+00 0.  1.
         23    2    1    2    0    0  0.25581597582E+02 -0.41862136529E+02  0.43414133809E+03  0.44680899730E+03  0.93555983341E+02 0.  0.
         23    2    1    2    0    0 -0.25581597582E+02  0.41862136529E+02 -0.81729506191E+01  0.10434552924E+03  0.91729688435E+02 0.  0.
          5    1    4    4  502    0  0.32017736393E+02  0.19947949037E+02 -0.17482109403E+02  0.41842206726E+02  0.47000000000E+01 0. -1.
         -5    1    3    3    0  503 -0.18811130453E+02  0.16316670758E+02  0.53887571408E+02  0.59548742437E+02  0.47000000000E+01 0.  1.
          5    1    3    3  503    0  0.44392728035E+02 -0.58178807288E+02  0.38025376668E+03  0.38726025486E+03  0.47000000000E+01 0. -1.
         -5    1    4    4    0  502 -0.57599333974E+02  0.21914187493E+02  0.93091587843E+01  0.62503322512E+02  0.47000000000E+01 0.  1.
<mgrwt>
<rscale>  0 0.10523309E+03</rscale>
<asrwt>0</asrwt>
<pdfrwt beam="1">  1        1 0.75163298E-01 0.10563891E+03</pdfrwt>
<pdfrwt beam="2">  1       -1 0.96297033E-02 0.10563891E+03</pdfrwt>
<totfact> 0.29032078E+03</totfact>
</mgrwt>
</event>
<event>
 8    1  0.6836165E-004  0.9862204E+02  0.7546771E-02  0.1283656E+00
         -1   -1    0    0    0  501 -0.00000000000E+00  0.00000000000E+00  0.64680381945E+02  0.64680381945E+02  0.00000000000E+00 0.  1.
          1   -1    0    0  501    0  0.00000000000E+00 -0.00000000000E+00 -0.16192639263E+03  0.16192639263E+03  0.00000000000E+00 0. -1.
         23    2    1    2    0    0 -0.34574640157E+02 -0.40413436029E+01 -0.16602797380E+02  0.99211192246E+02  0.91408257756E+02 0.  0.
         23    2    1    2    0    0  0.34574640157E+02  0.40413436029E+01 -0.80643213301E+02  0.12739558232E+03  0.92274418688E+02 0.  0.
          5    1    3    3  502    0 -0.11985113263E+02 -0.44927539832E+02  0.59766174743E+01  0.47116204555E+02  0.47000000000E+01 0. -1.
         -5    1    3    3    0  502 -0.22589526894E+02  0.40886196229E+02 -0.22579414854E+02  0.52094987691E+02  0.47000000000E+01 0.  1.
          5    1    4    4  503    0  0.43335244714E+02  0.39547719419E+02 -0.63977995034E+02  0.86932384037E+02  0.47000000000E+01 0. -1.
         -5    1    4    4    0  503 -0.87606045577E+01 -0.35506375816E+02 -0.16665218267E+02  0.40463198288E+02  0.47000000000E+01 0.  1.
<mgrwt>
<rscale>  0 0.98418929E+02</rscale>
<asrwt>0</asrwt>
<pdfrwt beam="1">  1        1 0.24911752E-01 0.98622039E+02</pdfrwt>
<pdfrwt beam="2">  1       -1 0.99508281E-02 0.98622039E+02</pdfrwt>
<totfact> 0.10787583E+04</totfact>
</mgrwt>
</event>
<event>
 8    1  0.6836165E-004  0.1146681E+03  0.7546771E-02  0.1252971E+00
          1   -1    0    0  501    0  0.00000000000E+00  0.00000000000E+00  0.10148338449E+04  0.10148338449E+04  0.00000000000E+00 0. -1.
         -1   -1    0    0    0  501 -0.00000000000E+00 -0.00000000000E+00 -0.13970206238E+02  0.13970206238E+02  0.00000000000E+00 0.  1.
         23    2    1    2    0    0 -0.67152867578E+02 -0.71751040469E+01  0.34476720339E+03  0.36276252655E+03  0.90394891398E+02 0.  0.
         23    2    1    2    0    0  0.67152867578E+02  0.71751040469E+01  0.65609643523E+03  0.66604152455E+03  0.92670331614E+02 0.  0.
          5    1    4    4  502    0  0.68239174886E+02  0.38803773449E+02  0.53677410973E+03  0.54250424211E+03  0.47000000000E+01 0. -1.
         -5    1    4    4    0  502 -0.10863073080E+01 -0.31628669402E+02  0.11932232549E+03  0.12353728244E+03  0.47000000000E+01 0.  1.
          5    1    3    3  503    0  0.20105871296E+02 -0.18887331750E+01  0.11556313867E+03  0.11740844259E+03  0.47000000000E+01 0. -1.
         -5    1    3    3    0  503 -0.87258738874E+02 -0.52863708719E+01  0.22920406473E+03  0.24535408396E+03  0.47000000000E+01 0.  1.
<mgrwt>
<rscale>  0 0.11420762E+03</rscale>
<asrwt>0</asrwt>
<pdfrwt beam="1">  1        1 0.15612823E+00 0.11466813E+03</pdfrwt>
<pdfrwt beam="2">  1       -1 0.21492633E-02 0.11466813E+03</pdfrwt>
<totfact> 0.91993551E+03</totfact>
</mgrwt>
</event>
<event>
 8    1  0.6836165E-004  0.1101532E+03  0.7546771E-02  0.1261146E+00
         -1   -1    0    0    0  501 -0.00000000000E+00  0.00000000000E+00  0.24581913156E+02  0.24581913156E+02  0.00000000000E+00 0.  1.
          1   -1    0    0  501    0  0.00000000000E+00 -0.00000000000E+00 -0.49192863387E+03  0.49192863387E+03  0.00000000000E+00 0. -1.
         23    2    1    2    0    0 -0.45360503626E+01  0.60321533995E+02 -0.20192896661E+03  0.22914262818E+03  0.89843048021E+02 0.  0.
         23    2    1    2    0    0  0.45360503626E+01 -0.60321533995E+02 -0.26541775411E+03  0.28736791885E+03  0.92056902893E+02 0.  0.
          5    1    3    3  502    0 -0.26706985078E+02  0.34468167938E+02 -0.18627085123E+03  0.19136414939E+03  0.47000000000E+01 0. -1.
         -5    1    4    4    0  503  0.40526976630E+02 -0.15013003600E+01 -0.10724582556E+03  0.11475385326E+03  0.47000000000E+01 0.  1.
          5    1    4    4  503    0 -0.35990926267E+02 -0.58820233635E+02 -0.15817192855E+03  0.17261406559E+03  0.47000000000E+01 0. -1.
         -5    1    3    3    0  502  0.22170934715E+02  0.25853366058E+02 -0.15658115377E+02  0.37778478792E+02  0.47000000000E+01 0.  1.
<mgrwt>
<rscale>  0 0.10968949E+03</rscale>
<asrwt>0</asrwt>
<pdfrwt beam="1">  1        1 0.75681326E-01 0.11015324E+03</pdfrwt>
<pdfrwt beam="2">  1       -1 0.37818329E-02 0.11015324E+03</pdfrwt>
<totfact> 0.11530776E+04</totfact>
</mgrwt>
</event>
<event>
 8    1  0.6836165E-004  0.1207824E+03  0.7546771E-02  0.1241900E+00
          3   -1    0    0  501    0  0.00000000000E+00  0.00000000000E+00  0.88450364019E+02  0.88450364019E+02  0.00000000000E+00 0. -1.
         -3   -1    0    0    0  501 -0.00000000000E+00 -0.00000000000E+00 -0.51572874912E+03  0.51572874912E+03  0.00000000000E+00 0.  1.
         23    2    1    2    0    0  0.78190693170E+02  0.40452908251E+01  0.35549139596E+02  0.12590524822E+03  0.91968697536E+02 0.  0.
         23    2    1    2    0    0 -0.78190693170E+02 -0.40452908251E+01 -0.46282752470E+03  0.47827386492E+03  0.91686549577E+02 0.  0.
          5    1    3    3  502    0  0.33795987947E+02 -0.17386715578E+02  0.59607867653E+02  0.70849520578E+02  0.47000000000E+01 0. -1.
         -5    1    4    4    0  503 -0.83265872822E+02 -0.23840944818E+02 -0.25412208196E+03  0.26851763213E+03  0.47000000000E+01 0.  1.
          5    1    4    4  503    0  0.50751796513E+01  0.19795653993E+02 -0.20870544274E+03  0.20975623280E+03  0.47000000000E+01 0. -1.
         -5    1    3    3    0  502  0.44394705223E+02  0.21432006403E+02 -0.24058728057E+02  0.55055727640E+02  0.47000000000E+01 0.  1.
<mgrwt>
<rscale>  0 0.12072870E+03</rscale>
<asrwt>0</asrwt>
<pdfrwt beam="1">  1        3 0.13607748E-01 0.12078241E+03</pdfrwt>
<pdfrwt beam="2">  1       -3 0.79342884E-01 0.12078241E+03</pdfrwt>
<totfact> 0.15379853E+02</totfact>
</mgrwt>
</event>
<event>
 8    1  0.6836165E-004  0.1385388E+03  0.7546771E-02  0.1215756E+00
         -4   -1    0    0    0  501 -0.00000000000E+00  0.00000000000E+00  0.24777961372E+03  0.24777961372E+03  0.00000000000E+00 0.  1.
          4   -1    0    0  501    0  0.00000000000E+00 -0.00000000000E+00 -0.15899166788E+03  0.15899166788E+03  0.00000000000E+00 0. -1.
         23    2    1    2    0    0  0.27771927988E+02 -0.98725725648E+02  0.19058551222E+03  0.23485342293E+03  0.91187959211E+02 0.  0.
         23    2    1    2    0    0 -0.27771927988E+02  0.98725725648E+02 -0.10179756638E+03  0.17191785866E+03  0.93139447699E+02 0.  0.
          5    1    3    3  502    0 -0.21274435418E+02  0.50420574680E+01  0.30995602409E+02  0.38220953868E+02  0.47000000000E+01 0. -1.
         -5    1    3    3    0  502  0.49046363406E+02 -0.10376778312E+03  0.15958990981E+03  0.19663246906E+03  0.47000000000E+01 0.  1.
          5    1    4    4  503    0  0.33641911029E+02  0.47678453323E+02 -0.42966395798E+02  0.72616900628E+02  0.47000000000E+01 0. -1.
         -5    1    4    4    0  503 -0.61413839017E+02  0.51047272324E+02 -0.58831170584E+02  0.99300958036E+02  0.47000000000E+01 0.  1.
<mgrwt>
<rscale>  0 0.13821157E+03</rscale>
<asrwt>0</asrwt>
<pdfrwt beam="1">  1        4 0.24460257E-01 0.13853882E+03</pdfrwt>
<pdfrwt beam="2">  1       -4 0.38119940E-01 0.13853882E+03</pdfrwt>
<totfact> 0.17500076E+02</totfact>
</mgrwt>
</event>
<event>
 8    1  0.6836165E-004  0.1900522E+03  0.7546771E-02  0.1163309E+00
         -2   -1    0    0    0  501 -0.00000000000E+00  0.00000000000E+00  0.15297920845E+03  0.15297920845E+03  0.00000000000E+00 0.  1.
          2   -1    0    0  501    0  0.00000000000E+00 -0.00000000000E+00 -0.21852975156E+03  0.21852975156E+03  0.00000000000E+00 0. -1.
         23    2    1    2    0    0  0.12841395218E+03 -0.62220488533E+02  0.25257405417E+01  0.16963224572E+03  0.91690714445E+02 0.  0.
         23    2    1    2    0    0 -0.12841395218E+03  0.62220488533E+02 -0.68076283654E+02  0.20187671429E+03  0.12553204797E+03 0.  0.
          5    1    4    4  502    0 -0.65786958310E+02  0.94440706937E+02 -0.62540792305E+02  0.13107406957E+03  0.47000000000E+01 0. -1.
         -5    1    4    4    0  502 -0.62626993874E+02 -0.32220218403E+02 -0.55354913488E+01  0.70802644726E+02  0.47000000000E+01 0. -1.
          5    1    3    3  503    0  0.51794017713E+02 -0.74215416149E+02 -0.90695750606E+01  0.91076316663E+02  0.47000000000E+01 0. -1.
         -5    1    3    3    0  503  0.76619934471E+02  0.11994927616E+02  0.11595315602E+02  0.78555929062E+02  0.47000000000E+01 0.  1.
<mgrwt>
<rscale>  0 0.18472245E+03</rscale>
<asrwt>0</asrwt>
<pdfrwt beam="1">  1        2 0.33619962E-01 0.19005217E+03</pdfrwt>
<pdfrwt beam="2">  1       -2 0.23535263E-01 0.19005217E+03</pdfrwt>
<totfact> 0.24076948E+03</totfact>
</mgrwt>
</event>
<event>
 8    1  0.6836165E-004  0.1031992E+03  0.7546771E-02  0.1274606E+00
          4   -1    0    0  501    0  0.00000000000E+00  0.00000000000E+00  0.57607655684E+03  0.57607655684E+03  0.00000000000E+00 0.  1.
         -4   -1    0    0    0  501 -0.00000000000E+00 -0.00000000000E+00 -0.26404001808E+02  0.26404001808E+02  0.00000000000E+00 0. -1.
         23    2    1    2    0    0 -0.20328965548E+02  0.46696345192E+02  0.10827543608E+03  0.14957824082E+03  0.89756696539E+02 0.  0.
         23    2    1    2    0    0  0.20328965548E+02 -0.46696345192E+02  0.44139711895E+03  0.45290231782E+03  0.87722730129E+02 0.  0.
          5    1    3    3  502    0 -0.47465784442E+02  0.42047444746E+02  0.38286932294E+02  0.74222419031E+02  0.47000000000E+01 0. -1.
         -5    1    4    4    0  503  0.54076735656E+02 -0.28351267817E+02  0.23120786005E+03  0.23918037602E+03  0.47000000000E+01 0.  1.
          5    1    4    4  503    0 -0.33747770109E+02 -0.18345077376E+02  0.21018925890E+03  0.21372194180E+03  0.47000000000E+01 0. -1.
         -5    1    3    3    0  502  0.27136818894E+02  0.46489004466E+01  0.69988503788E+02  0.75355821789E+02  0.47000000000E+01 0.  1.
<mgrwt>
<rscale>  0 0.10275535E+03</rscale>
<asrwt>0</asrwt>
<pdfrwt beam="1">  1        4 0.88627153E-01 0.10319923E+03</pdfrwt>
<pdfrwt beam="2">  1       -4 0.40621546E-02 0.10319923E+03</pdfrwt>
<totfact> 0.58991589E+02</totfact>
</mgrwt>
</event>
<event>
 8    1  0.6836165E-004  0.9897697E+02  0.7546771E-02  0.1283853E+00
         -1   -1    0    0    0  501 -0.00000000000E+00  0.00000000000E+00  0.13107346499E+02  0.13107346499E+02  0.00000000000E+00 0.  1.
          1   -1    0    0  501    0  0.00000000000E+00 -0.00000000000E+00 -0.83650416656E+03  0.83650416656E+03  0.00000000000E+00 0. -1.
         23    2    1    2    0    0 -0.30117915167E+02  0.20837734425E+02 -0.25406784604E+03  0.27174308476E+03  0.89176979854E+02 0.  0.
         23    2    1    2    0    0  0.30117915167E+02 -0.20837734425E+02 -0.56932897402E+03  0.57786842829E+03  0.91951833962E+02 0.  0.
          5    1    3    3  502    0 -0.41369306620E+02 -0.19207056984E+02 -0.18815411742E+03  0.19366050828E+03  0.47000000000E+01 0. -1.
         -5    1    4    4    0  503 -0.25594351168E+02  0.16381014564E+02 -0.22031690050E+03  0.22245232095E+03  0.47000000000E+01 0.  1.
          5    1    4    4  503    0  0.55712266334E+02 -0.37218748989E+02 -0.34901207352E+03  0.35541610734E+03  0.47000000000E+01 0. -1.
         -5    1    3    3    0  502  0.11251391454E+02  0.40044791409E+02 -0.65913728623E+02  0.78082576480E+02  0.47000000000E+01 0.  1.
<mgrwt>
<rscale>  0 0.98327493E+02</rscale>
<asrwt>0</asrwt>
<pdfrwt beam="1">  1        1 0.12869293E+00 0.98976966E+02</pdfrwt>
<pdfrwt beam="2">  1       -1 0.20165151E-02 0.98976966E+02</pdfrwt>
<totfact> 0.13589337E+04</totfact>
</mgrwt>
</event>
<event>
 8    1  0.6836165E-004  0.9283534E+02  0.7546771E-02  0.1296554E+00
          2   -1    0    0  501    0  0.00000000000E+00  0.00000000000E+00  0.71087923033E+03  0.71087923033E+03  0.00000000000E+00 0. -1.
         -2   -1    0    0    0  501 -0.00000000000E+00 -0.00000000000E+00 -0.14982929909E+02  0.14982929909E+02  0.00000000000E+00 0.  1.
         23    2    1    2    0    0  0.60243342971E+01  0.12002089107E+02  0.18788596570E+03  0.20956988414E+03  0.91858899858E+02 0.  0.
         23    2    1    2    0    0 -0.60243342971E+01 -0.12002089107E+02  0.50801033472E+03  0.51629227610E+03  0.91120093475E+02 0.  0.
          5    1    4    4  502    0 -0.30508668657E+02 -0.40676268135E+02  0.35400234830E+03  0.35766617152E+03  0.47000000000E+01 0. -1.
         -5    1    4    4    0  502  0.24484334360E+02  0.28674179028E+02  0.15400798642E+03  0.15862610458E+03  0.47000000000E+01 0.  1.
          5    1    3    3  503    0 -0.26894076969E+02  0.40437345353E+02  0.10731659331E+03  0.11788728292E+03  0.47000000000E+01 0. -1.
         -5    1    3    3    0  503  0.32918411266E+02 -0.28435256245E+02  0.80569372395E+02  0.91682601218E+02  0.47000000000E+01 0.  1.
<mgrwt>
<rscale>  0 0.92652054E+02</rscale>
<asrwt>0</asrwt>
<pdfrwt beam="1">  1        2 0.10936601E+00 0.92835339E+02</pdfrwt>
<pdfrwt beam="2">  1       -2 0.23050667E-02 0.92835339E+02</pdfrwt>
<totfact> 0.23510892E+04</totfact>
</mgrwt>
</event>
<event>
 8    1  0.6836165E-004  0.1091923E+03  0.7546771E-02  0.1262370E+00
          3   -1    0    0  501    0  0.00000000000E+00  0.00000000000E+00  0.50429025833E+02  0.50429025833E+02  0.00000000000E+00 0. -1.
         -3   -1    0    0    0  501 -0.00000000000E+00 -0.00000000000E+00 -0.26826371399E+03  0.26826371399E+03  0.00000000000E+00 0.  1.
         23    2    1    2    0    0  0.30000366276E+02  0.51379033218E+02 -0.16525194437E+03  0.19806860169E+03  0.91559482464E+02 0.  0.
         23    2    1    2    0    0 -0.30000366276E+02 -0.51379033218E+02 -0.52582743794E+02  0.12062413813E+03  0.90804243977E+02 0.  0.
          5    1    4    4  502    0 -0.38110987606E+02 -0.23071550219E+02  0.14603448147E+02  0.47117878810E+02  0.47000000000E+01 0. -1.
         -5    1    3    3    0  503  0.34415856753E+02  0.75524793091E+02 -0.11447708971E+03  0.14147628648E+03  0.47000000000E+01 0.  1.
          5    1    3    3  503    0 -0.44154904762E+01 -0.24145759873E+02 -0.50774854656E+02  0.56592315214E+02  0.47000000000E+01 0. -1.
         -5    1    4    4    0  502  0.81106213295E+01 -0.28307482998E+02 -0.67186191940E+02  0.73506259322E+02  0.47000000000E+01 0.  1.
<mgrwt>
<rscale>  0 0.10903386E+03</rscale>
<asrwt>0</asrwt>
<pdfrwt beam="1">  1        3 0.77583117E-02 0.10919233E+03</pdfrwt>
<pdfrwt beam="2">  1       -3 0.41271340E-01 0.10919233E+03</pdfrwt>
<totfact> 0.14507070E+03</totfact>
</mgrwt>
</event>
<event>
 8    1  0.6836165E-004  0.9543836E+02  0.7546771E-02  0.1291427E+00
         -1   -1    0    0    0  501 -0.00000000000E+00  0.00000000000E+00  0.29921978880E+02  0.29921978880E+02  0.00000000000E+00 0.  1.
          1   -1    0    0  501    0  0.00000000000E+00 -0.00000000000E+00 -0.37949097518E+03  0.37949097518E+03  0.00000000000E+00 0. -1.
         23    2    1    2    0    0 -0.12048240144E+02  0.29154429173E+02 -0.26835108003E+03  0.28409404074E+03  0.87760930948E+02 0.  0.
         23    2    1    2    0    0  0.12048240144E+02 -0.29154429173E+02 -0.81217916275E+02  0.12531891332E+03  0.90074076633E+02 0.  0.
          5    1    3    3  502    0 -0.35979349996E+02  0.40678281358E+02 -0.10278105410E+03  0.11634118481E+03  0.47000000000E+01 0. -1.
         -5    1    3    3    0  502  0.23931109852E+02 -0.11523852185E+02 -0.16557002593E+03  0.16775285593E+03  0.47000000000E+01 0.  1.
          5    1    4    4  503    0 -0.32564129696E+02  0.44767121451E+01 -0.99955309630E+01  0.34676564618E+02  0.47000000000E+01 0. -1.
         -5    1    4    4    0  503  0.44612369840E+02 -0.33631141318E+02 -0.71222385312E+02  0.90642348705E+02  0.47000000000E+01 0.  1.
<mgrwt>
<rscale>  0 0.94888627E+02</rscale>
<asrwt>0</asrwt>
<pdfrwt beam="1">  1        1 0.58383230E-01 0.95438358E+02</pdfrwt>
<pdfrwt beam="2">  1       -1 0.46033811E-02 0.95438358E+02</pdfrwt>
<totfact> 0.11862791E+04</totfact>
</mgrwt>
</event>
<event>
 8    1  0.6836165E-004  0.2049281E+03  0.7546771E-02  0.1146684E+00
         -1   -1    0    0    0  501 -0.00000000000E+00  0.00000000000E+00  0.34098038503E+02  0.34098038503E+02  0.00000000000E+00 0.  1.
          1   -1    0    0  501    0  0.00000000000E+00 -0.00000000000E+00 -0.18651677597E+04  0.18651677597E+04  0.00000000000E+00 0. -1.
         23    2    1    2    0    0  0.15019378941E+03  0.99510498173E+02 -0.14745930935E+04  0.14880832000E+04  0.86638935045E+02 0.  0.
         23    2    1    2    0    0 -0.15019378941E+03 -0.99510498173E+02 -0.35647662768E+03  0.41118259820E+03  0.97647474897E+02 0.  0.
          5    1    3    3  502    0  0.11608137774E+03  0.43674667768E+02 -0.11664596586E+04  0.11730441543E+04  0.47000000000E+01 0. -1.
         -5    1    3    3    0  502  0.34112411672E+02  0.55835830406E+02 -0.30813343489E+03  0.31503904565E+03  0.47000000000E+01 0.  1.
          5    1    4    4  503    0 -0.11945413764E+03 -0.10807355439E+03 -0.33687772232E+03  0.37344058959E+03  0.47000000000E+01 0. -1.
         -5    1    4    4    0  503 -0.30739651768E+02  0.85630562142E+01 -0.19598905366E+02  0.37742008613E+02  0.47000000000E+01 0.  1.
<mgrwt>
<rscale>  0 0.20366371E+03</rscale>
<asrwt>0</asrwt>
<pdfrwt beam="1">  1        1 0.28694892E+00 0.20492814E+03</pdfrwt>
<pdfrwt beam="2">  1       -1 0.52458514E-02 0.20492814E+03</pdfrwt>
<totfact> 0.68156803E+02</totfact>
</mgrwt>
</event>
<event>
 8    1  0.6836165E-004  0.1241951E+03  0.7546771E-02  0.1236664E+00
         -1   -1    0    0    0  501 -0.00000000000E+00  0.00000000000E+00  0.76924741276E+03  0.76924741276E+03  0.00000000000E+00 0.  1.
          1   -1    0    0  501    0  0.00000000000E+00 -0.00000000000E+00 -0.20924957306E+02  0.20924957306E+02  0.00000000000E+00 0. -1.
         23    2    1    2    0    0 -0.60889246194E+02 -0.56368757589E+02  0.45969456147E+03  0.47595828394E+03  0.91281219705E+02 0.  0.
         23    2    1    2    0    0  0.60889246194E+02  0.56368757589E+02  0.28862789399E+03  0.31421408613E+03  0.92409380482E+02 0.  0.
          5    1    4    4  502    0  0.64942805179E+02  0.26110510596E+01  0.20023420717E+03  0.21057115959E+03  0.47000000000E+01 0. -1.
         -5    1    4    4    0  502 -0.40535589852E+01  0.53757706530E+02  0.88393686820E+02  0.10364292654E+03  0.47000000000E+01 0.  1.
          5    1    3    3  503    0 -0.59417138761E+02 -0.79693441600E+02  0.37205221329E+03  0.38513164039E+03  0.47000000000E+01 0. -1.
         -5    1    3    3    0  503 -0.14721074329E+01  0.23324684011E+02  0.87642348177E+02  0.90826643550E+02  0.47000000000E+01 0.  1.
<mgrwt>
<rscale>  0 0.12398532E+03</rscale>
<asrwt>0</asrwt>
<pdfrwt beam="1">  1        1 0.32192248E-02 0.12419513E+03</pdfrwt>
<pdfrwt beam="2">  1       -1 0.11834573E+00 0.12419513E+03</pdfrwt>
<totfact> 0.20367469E+03</totfact>
</mgrwt>
</event>
<event>
 8    1  0.6836165E-004  0.9306960E+02  0.7546771E-02  0.1299501E+00
          1   -1    0    0  501    0  0.00000000000E+00  0.00000000000E+00  0.12114405716E+03  0.12114405716E+03  0.00000000000E+00 0. -1.
         -1   -1    0    0    0  501 -0.00000000000E+00 -0.00000000000E+00 -0.67353610527E+02  0.67353610527E+02  0.00000000000E+00 0.  1.
         23    2    1    2    0    0  0.95974525524E-01 -0.23118633853E+02  0.17823271994E+02  0.94760849859E+02  0.90152477498E+02 0.  0.
         23    2    1    2    0    0 -0.95974525524E-01  0.23118633853E+02  0.35967174639E+02  0.93736817829E+02  0.83417461738E+02 0.  0.
          5    1    4    4  502    0  0.33435071624E+02 -0.29009845059E+01  0.38089237525E+02  0.50982347345E+02  0.47000000000E+01 0. -1.
         -5    1    3    3    0  503  0.38737569808E+01  0.31789026548E+02  0.22356046070E+02  0.39337399480E+02  0.47000000000E+01 0.  1.
          5    1    3    3  503    0 -0.37777824553E+01 -0.54907660401E+02 -0.45327740761E+01  0.55423450378E+02  0.47000000000E+01 0. -1.
         -5    1    4    4    0  502 -0.33531046149E+02  0.26019618359E+02 -0.21220628863E+01  0.42754470483E+02  0.47000000000E+01 0.  1.
<mgrwt>
<rscale>  0 0.91398170E+02</rscale>
<asrwt>0</asrwt>
<pdfrwt beam="1">  1        1 0.18637547E-01 0.93069596E+02</pdfrwt>
<pdfrwt beam="2">  1       -1 0.10362094E-01 0.93069596E+02</pdfrwt>
<totfact> 0.14510704E+04</totfact>
</mgrwt>
</event>
<event>
 8    1  0.6836165E-004  0.1313394E+03  0.7546771E-02  0.1225919E+00
          1   -1    0    0  501    0  0.00000000000E+00  0.00000000000E+00  0.72798908204E+03  0.72798908204E+03  0.00000000000E+00 0. -1.
         -1   -1    0    0    0  501 -0.00000000000E+00 -0.00000000000E+00 -0.40330104767E+02  0.40330104767E+02  0.00000000000E+00 0.  1.
         23    2    1    2    0    0  0.87614949478E+02 -0.34419813535E+02  0.94621798514E+02  0.16091230149E+03  0.89879814654E+02 0.  0.
         23    2    1    2    0    0 -0.87614949478E+02  0.34419813535E+02  0.59303717876E+03  0.60740688531E+03  0.91591080351E+02 0.  0.
          5    1    4    4  502    0 -0.29210207404E+02  0.42005471441E+02  0.44590452163E+03  0.44885479641E+03  0.47000000000E+01 0.  1.
         -5    1    4    4    0  502 -0.58404742074E+02 -0.75856579069E+01  0.14713265712E+03  0.15855208890E+03  0.47000000000E+01 0. -1.
          5    1    3    3  503    0  0.87543634750E+01 -0.21521549643E+02  0.74774538003E+02  0.78441937205E+02  0.47000000000E+01 0. -1.
         -5    1    3    3    0  503  0.78860586003E+02 -0.12898263891E+02  0.19847260511E+02  0.82470364289E+02  0.47000000000E+01 0.  1.
<mgrwt>
<rscale>  0 0.13104146E+03</rscale>
<asrwt>0</asrwt>
<pdfrwt beam="1">  1        1 0.11199831E+00 0.13133937E+03</pdfrwt>
<pdfrwt beam="2">  1       -1 0.62046320E-02 0.13133937E+03</pdfrwt>
<totfact> 0.32973425E+03</totfact>
</mgrwt>
</event>
<event>
 8    1  0.6836165E-004  0.1038670E+03  0.7546771E-02  0.1279197E+00
         -2   -1    0    0    0  501 -0.00000000000E+00  0.00000000000E+00  0.50860378393E+02  0.50860378393E+02  0.00000000000E+00 0.  1.
          2   -1    0    0  501    0  0.00000000000E+00 -0.00000000000E+00 -0.23153505056E+03  0.23153505056E+03  0.00000000000E+00 0. -1.
         23    2    1    2    0    0  0.21022375972E+02 -0.36583452381E+01 -0.14746249304E+03  0.17334769254E+03  0.88594084858E+02 0.  0.
         23    2    1    2    0    0 -0.21022375972E+02  0.36583452381E+01 -0.33212179128E+02  0.10904773642E+03  0.10165154300E+03 0.  0.
          5    1    3    3  502    0 -0.24504486497E+02 -0.21588765089E+02 -0.98861971751E+02  0.10422247404E+03  0.47000000000E+01 0. -1.
         -5    1    3    3    0  502  0.45526862469E+02  0.17930419851E+02 -0.48600521291E+02  0.69125218496E+02  0.47000000000E+01 0.  1.
          5    1    4    4  503    0 -0.46693794367E+02 -0.23270922820E+02 -0.45707050437E+02  0.69520290138E+02  0.47000000000E+01 0. -1.
         -5    1    4    4    0  503  0.25671418394E+02  0.26929268058E+02  0.12494871309E+02  0.39527446282E+02  0.47000000000E+01 0.  1.
<mgrwt>
<rscale>  0 0.10052423E+03</rscale>
<asrwt>0</asrwt>
<pdfrwt beam="1">  1        2 0.35620777E-01 0.10386703E+03</pdfrwt>
<pdfrwt beam="2">  1       -2 0.78246735E-02 0.10386703E+03</pdfrwt>
<totfact> 0.13028306E+04</totfact>
</mgrwt>
</event>
<event>
 8    1  0.6836165E-004  0.1180587E+03  0.7546771E-02  0.1249611E+00
         -2   -1    0    0    0  501 -0.00000000000E+00  0.00000000000E+00  0.98845948652E+02  0.98845948652E+02  0.00000000000E+00 0.  1.
          2   -1    0    0  501    0  0.00000000000E+00 -0.00000000000E+00 -0.18166545272E+03  0.18166545272E+03  0.00000000000E+00 0. -1.
         23    2    1    2    0    0  0.63118140242E+02  0.22887108016E+02  0.32750169795E+02  0.11530179752E+03  0.87830584357E+02 0.  0.
         23    2    1    2    0    0 -0.63118140242E+02 -0.22887108016E+02 -0.11556967386E+03  0.16520960385E+03  0.97108930318E+02 0.  0.
          5    1    3    3  502    0  0.15829793772E+02 -0.32260173313E+02  0.20009230593E+02  0.41397590050E+02  0.47000000000E+01 0. -1.
         -5    1    3    3    0  502  0.47288346470E+02  0.55147281329E+02  0.12740939202E+02  0.73904207469E+02  0.47000000000E+01 0.  1.
          5    1    4    4  503    0 -0.17520798895E+02  0.36915818088E+02 -0.54138591638E+02  0.67991419484E+02  0.47000000000E+01 0. -1.
         -5    1    4    4    0  503 -0.45597341348E+02 -0.59802926104E+02 -0.61431082227E+02  0.97218184370E+02  0.47000000000E+01 0.  1.
<mgrwt>
<rscale>  0 0.11613578E+03</rscale>
<asrwt>0</asrwt>
<pdfrwt beam="1">  1        2 0.27948531E-01 0.11805873E+03</pdfrwt>
<pdfrwt beam="2">  1       -2 0.15207069E-01 0.11805873E+03</pdfrwt>
<totfact> 0.59870015E+03</totfact>
</mgrwt>
</event>
<event>
 8    1  0.6836165E-004  0.1012602E+03  0.7546771E-02  0.1282870E+00
          2   -1    0    0  501    0  0.00000000000E+00  0.00000000000E+00  0.14649667596E+03  0.14649667596E+03  0.00000000000E+00 0. -1.
         -2   -1    0    0    0  501 -0.00000000000E+00 -0.00000000000E+00 -0.27537817539E+03  0.27537817539E+03  0.00000000000E+00 0.  1.
         23    2    1    2    0    0  0.19330982617E+01 -0.11662657332E+02 -0.24865583345E+03  0.26503251266E+03  0.90954685497E+02 0.  0.
         23    2    1    2    0    0 -0.19330982617E+01  0.11662657332E+02  0.11977433402E+03  0.15684233869E+03  0.10056775661E+03 0.  0.
          5    1    3    3  502    0 -0.24581569362E+02 -0.42645310207E+02 -0.11407362957E+03  0.12432923630E+03  0.47000000000E+01 0. -1.
         -5    1    4    4    0  503 -0.15347785431E+02 -0.28920254173E+02  0.39713656626E+01  0.33313621303E+02  0.47000000000E+01 0.  1.
          5    1    4    4  503    0  0.13414687169E+02  0.40582911504E+02  0.11580296836E+03  0.12352871739E+03  0.47000000000E+01 0. -1.
         -5    1    3    3    0  502  0.26514667624E+02  0.30982652876E+02 -0.13458220388E+03  0.14070327636E+03  0.47000000000E+01 0.  1.
<mgrwt>
<rscale>  0 0.98785859E+02</rscale>
<asrwt>0</asrwt>
<pdfrwt beam="1">  1        2 0.22537950E-01 0.10126020E+03</pdfrwt>
<pdfrwt beam="2">  1       -2 0.42365873E-01 0.10126020E+03</pdfrwt>
<totfact> 0.12507503E+03</totfact>
</mgrwt>
</event>
<event>
 8    1  0.6836165E-004  0.9968819E+02  0.7546771E-02  0.1282651E+00
          1   -1    0    0  501    0  0.00000000000E+00  0.00000000000E+00  0.26362551023E+03  0.26362551023E+03  0.00000000000E+00 0. -1.
         -1   -1    0    0    0  501 -0.00000000000E+00 -0.00000000000E+00 -0.46124085327E+02  0.46124085327E+02  0.00000000000E+00 0.  1.
         23    2    1    2    0    0  0.34800663889E+02 -0.28758705568E+01  0.39438535929E+02  0.10720602859E+03  0.93372252899E+02 0.  0.
         23    2    1    2    0    0 -0.34800663889E+02  0.28758705568E+01  0.17806288897E+03  0.20254356696E+03  0.89989706360E+02 0.  0.
          5    1    4    4  502    0  0.28945946430E+02  0.19197702856E+01  0.82429213841E+02  0.87511248575E+02  0.47000000000E+01 0. -1.
         -5    1    3    3    0  503 -0.25943048203E+02  0.19138768239E+02  0.25990592644E+01  0.32683012542E+02  0.47000000000E+01 0.  1.
          5    1    3    3  503    0  0.60743712093E+02 -0.22014638796E+02  0.36839476664E+02  0.74523016049E+02  0.47000000000E+01 0. -1.
         -5    1    4    4    0  502 -0.63746610319E+02  0.95610027121E+00  0.95633675131E+02  0.11503231839E+03  0.47000000000E+01 0.  1.
<mgrwt>
<rscale>  0 0.98888370E+02</rscale>
<asrwt>0</asrwt>
<pdfrwt beam="1">  1        1 0.40557770E-01 0.99688186E+02</pdfrwt>
<pdfrwt beam="2">  1       -1 0.70960133E-02 0.99688186E+02</pdfrwt>
<totfact> 0.98425462E+03</totfact>
</mgrwt>
</event>
<event>
 8    1  0.6836165E-004  0.1359713E+03  0.7546771E-02  0.1221376E+00
         -1   -1    0    0    0  501 -0.00000000000E+00  0.00000000000E+00  0.52463056156E+02  0.52463056156E+02  0.00000000000E+00 0.  1.
          1   -1    0    0  501    0  0.00000000000E+00 -0.00000000000E+00 -0.62048181302E+03  0.62048181302E+03  0.00000000000E+00 0. -1.
         23    2    1    2    0    0 -0.36528391164E+02 -0.89868533584E+02 -0.51560342472E+02  0.13888729864E+03  0.84973737820E+02 0.  0.
         23    2    1    2    0    0  0.36528391164E+02  0.89868533584E+02 -0.51645841439E+03  0.53405757053E+03  0.95276010401E+02 0.  0.
          5    1    4    4  502    0  0.32083214139E+02  0.58358904850E+02 -0.48319313528E+03  0.48778354871E+03  0.47000000000E+01 0. -1.
         -5    1    4    4    0  502  0.44451770248E+01  0.31509628733E+02 -0.33265279107E+02  0.46274021824E+02  0.47000000000E+01 0.  1.
          5    1    3    3  503    0 -0.52370040023E+02 -0.22745947568E+02 -0.37133081139E+02  0.68271186731E+02  0.47000000000E+01 0. -1.
         -5    1    3    3    0  503  0.15841648859E+02 -0.67122586016E+02 -0.14427261333E+02  0.70616111912E+02  0.47000000000E+01 0.  1.
<mgrwt>
<rscale>  0 0.13418406E+03</rscale>
<asrwt>0</asrwt>
<pdfrwt beam="1">  1        1 0.95458740E-01 0.13597130E+03</pdfrwt>
<pdfrwt beam="2">  1       -1 0.80712395E-02 0.13597130E+03</pdfrwt>
<totfact> 0.27874526E+03</totfact>
</mgrwt>
</event>
<event>
 8    1  0.6836165E-004  0.9373230E+02  0.7546771E-02  0.1295155E+00
          1   -1    0    0  501    0  0.00000000000E+00  0.00000000000E+00  0.14995785270E+03  0.14995785270E+03  0.00000000000E+00 0. -1.
         -1   -1    0    0    0  501 -0.00000000000E+00 -0.00000000000E+00 -0.64665299192E+02  0.64665299192E+02  0.00000000000E+00 0.  1.
         23    2    1    2    0    0 -0.22298419479E+02 -0.39008852011E+01  0.78202148791E+02  0.12062305556E+03  0.89005106817E+02 0.  0.
         23    2    1    2    0    0  0.22298419479E+02  0.39008852011E+01  0.70904047222E+01  0.94000096341E+02  0.90957725655E+02 0.  0.
          5    1    3    3  502    0 -0.32588474748E+02 -0.35208489028E+02  0.72175619426E+02  0.86793181908E+02  0.47000000000E+01 0. -1.
         -5    1    4    4    0  503  0.35524592874E+02  0.38373375352E+02  0.17513992684E+02  0.55347471257E+02  0.47000000000E+01 0.  1.
          5    1    4    4  503    0 -0.13226173395E+02 -0.34472490151E+02 -0.10423587962E+02  0.38652625084E+02  0.47000000000E+01 0. -1.
         -5    1    3    3    0  502  0.10290055269E+02  0.31307603827E+02  0.60265293641E+01  0.33829873648E+02  0.47000000000E+01 0.  1.
<mgrwt>
<rscale>  0 0.93255270E+02</rscale>
<asrwt>0</asrwt>
<pdfrwt beam="1">  1        1 0.23070439E-01 0.93732301E+02</pdfrwt>
<pdfrwt beam="2">  1       -1 0.99485076E-02 0.93732301E+02</pdfrwt>
<totfact> 0.11818132E+04</totfact>
</mgrwt>
</event>
<event>
 8    1  0.6836165E-004  0.9488354E+02  0.7546771E-02  0.1292972E+00
         -2   -1    0    0    0  501 -0.00000000000E+00  0.00000000000E+00  0.30560996433E+02  0.30560996433E+02  0.00000000000E+00 0. -1.
          2   -1    0    0  501    0  0.00000000000E+00 -0.00000000000E+00 -0.40481940771E+03  0.40481940771E+03  0.00000000000E+00 0.  1.
         23    2    1    2    0    0 -0.19065566802E+02  0.16472131924E+02 -0.71260644828E+02  0.11866324367E+03  0.91477095110E+02 0.  0.
         23    2    1    2    0    0  0.19065566802E+02 -0.16472131924E+02 -0.30299776645E+03  0.31671716047E+03  0.88697724304E+02 0.  0.
          5    1    4    4  502    0 -0.18487374956E+02 -0.17362607728E+02 -0.24226494539E+02  0.35387232409E+02  0.47000000000E+01 0. -1.
         -5    1    3    3    0  503 -0.40301661151E+02  0.28792792977E+02 -0.76759767314E+01  0.50341428642E+02  0.47000000000E+01 0.  1.
          5    1    3    3  503    0  0.21236094349E+02 -0.12320661053E+02 -0.63584668096E+02  0.68321815029E+02  0.47000000000E+01 0. -1.
         -5    1    4    4    0  502  0.37552941758E+02  0.89047580449E+00 -0.27877127191E+03  0.28132992806E+03  0.47000000000E+01 0.  1.
<mgrwt>
<rscale>  0 0.94207183E+02</rscale>
<asrwt>0</asrwt>
<pdfrwt beam="1">  1        2 0.62279909E-01 0.94883539E+02</pdfrwt>
<pdfrwt beam="2">  1       -2 0.47016918E-02 0.94883539E+02</pdfrwt>
<totfact> 0.15459418E+04</totfact>
</mgrwt>
</event>
<event>
 8    1  0.6836165E-004  0.9858088E+02  0.7546771E-02  0.1296962E+00
         -2   -1    0    0    0  501 -0.00000000000E+00  0.00000000000E+00  0.68617677990E+03  0.68617677990E+03  0.00000000000E+00 0.  1.
          2   -1    0    0  501    0  0.00000000000E+00 -0.00000000000E+00 -0.23263721847E+03  0.23263721847E+03  0.00000000000E+00 0. -1.
         23    2    1    2    0    0 -0.30377139363E+02 -0.38987021899E+01  0.67624236466E+03  0.68339002510E+03  0.93702829009E+02 0.  0.
         23    2    1    2    0    0  0.30377139363E+02  0.38987021899E+01 -0.22270280323E+03  0.23542397327E+03  0.69928092718E+02 0.  0.
          5    1    3    3  502    0 -0.31522687692E+02  0.41448846070E+02  0.32059566190E+03  0.32483127176E+03  0.47000000000E+01 0. -1.
         -5    1    4    4    0  503 -0.20351751983E+02 -0.87259193771E+01 -0.87772379494E+02  0.90644448698E+02  0.47000000000E+01 0.  1.
          5    1    4    4  503    0  0.50728891346E+02  0.12624621567E+02 -0.13493042373E+03  0.14477952457E+03  0.47000000000E+01 0. -1.
         -5    1    3    3    0  502  0.11455483286E+01 -0.45347548260E+02  0.35564670276E+03  0.35855875334E+03  0.47000000000E+01 0.  1.
<mgrwt>
<rscale>  0 0.92476976E+02</rscale>
<asrwt>0</asrwt>
<pdfrwt beam="1">  1        2 0.35790342E-01 0.98580884E+02</pdfrwt>
<pdfrwt beam="2">  1       -2 0.10556566E+00 0.98580884E+02</pdfrwt>
<totfact> 0.11188655E+02</totfact>
</mgrwt>
</event>
<event>
 8    1  0.6836165E-004  0.1123792E+03  0.7546771E-02  0.1256477E+00
          1   -1    0    0  501    0  0.00000000000E+00  0.00000000000E+00  0.58723422232E+03  0.58723422232E+03  0.00000000000E+00 0. -1.
         -1   -1    0    0    0  501 -0.00000000000E+00 -0.00000000000E+00 -0.22970337505E+02  0.22970337505E+02  0.00000000000E+00 0.  1.
         23    2    1    2    0    0  0.47458935925E+02 -0.44775675758E+02  0.20170594231E+03  0.23062935517E+03  0.90815200094E+02 0.  0.
         23    2    1    2    0    0 -0.47458935925E+02  0.44775675758E+02  0.36255794251E+03  0.37957520465E+03  0.91497882868E+02 0.  0.
          5    1    3    3  502    0  0.30561726473E+02  0.20689044086E+02  0.11318716599E+03  0.11914478677E+03  0.47000000000E+01 0. -1.
         -5    1    4    4    0  503 -0.76070365088E+00 -0.26536937206E+02  0.82410737303E+02  0.86708750015E+02  0.47000000000E+01 0.  1.
          5    1    4    4  503    0 -0.46698232274E+02  0.71312612964E+02  0.28014720521E+03  0.29286645463E+03  0.47000000000E+01 0. -1.
         -5    1    3    3    0  502  0.16897209452E+02 -0.65464719844E+02  0.88518776319E+02  0.11148456841E+03  0.47000000000E+01 0.  1.
<mgrwt>
<rscale>  0 0.11224011E+03</rscale>
<asrwt>0</asrwt>
<pdfrwt beam="1">  1        1 0.90343715E-01 0.11237915E+03</pdfrwt>
<pdfrwt beam="2">  1       -1 0.35338985E-02 0.11237915E+03</pdfrwt>
<totfact> 0.10098489E+04</totfact>
</mgrwt>
</event>
<event>
 8    1  0.6836165E-004  0.9557049E+02  0.7546771E-02  0.1294461E+00
          1   -1    0    0  501    0  0.00000000000E+00  0.00000000000E+00  0.70300177716E+02  0.70300177716E+02  0.00000000000E+00 0. -1.
         -1   -1    0    0    0  501 -0.00000000000E+00 -0.00000000000E+00 -0.12911943232E+03  0.12911943232E+03  0.00000000000E+00 0.  1.
         23    2    1    2    0    0 -0.68872780416E+01  0.26399057824E+02 -0.55399584453E+02  0.10378795432E+03  0.83417508067E+02 0.  0.
         23    2    1    2    0    0  0.68872780416E+01 -0.26399057824E+02 -0.34196701523E+01  0.95631655714E+02  0.91593529126E+02 0.  0.
          5    1    3    3  502    0 -0.42361907408E+02  0.12698029102E+01 -0.18136649710E+02  0.46337583681E+02  0.47000000000E+01 0. -1.
         -5    1    3    3    0  502  0.35474629367E+02  0.25129254914E+02 -0.37262934743E+02  0.57450370642E+02  0.47000000000E+01 0.  1.
          5    1    4    4  503    0 -0.41966108251E+02 -0.11342855803E+02  0.33368903641E+01  0.43852473782E+02  0.47000000000E+01 0. -1.
         -5    1    4    4    0  503  0.48853386292E+02 -0.15056202022E+02 -0.67565605164E+01  0.51779181932E+02  0.47000000000E+01 0.  1.
<mgrwt>
<rscale>  0 0.93556536E+02</rscale>
<asrwt>0</asrwt>
<pdfrwt beam="1">  1        1 0.10815412E-01 0.95570495E+02</pdfrwt>
<pdfrwt beam="2">  1       -1 0.19864528E-01 0.95570495E+02</pdfrwt>
<totfact> 0.10684703E+04</totfact>
</mgrwt>
</event>
<event>
 8    1  0.6836165E-004  0.1161179E+03  0.7546771E-02  0.1257194E+00
         -1   -1    0    0    0  501 -0.00000000000E+00  0.00000000000E+00  0.52937785687E+02  0.52937785687E+02  0.00000000000E+00 0.  1.
          1   -1    0    0  501    0  0.00000000000E+00 -0.00000000000E+00 -0.22944288712E+03  0.22944288712E+03  0.00000000000E+00 0. -1.
         23    2    1    2    0    0 -0.39132416308E+02 -0.37965401203E+01 -0.10977665329E+03  0.14845514577E+03  0.91881755396E+02 0.  0.
         23    2    1    2    0    0  0.39132416308E+02  0.37965401203E+01 -0.66728448139E+02  0.13392552703E+03  0.10925933039E+03 0.  0.
          5    1    3    3  502    0 -0.49252215197E+02 -0.38932825761E+02 -0.72671235466E+02  0.96149592239E+02  0.47000000000E+01 0. -1.
         -5    1    3    3    0  502  0.10119798889E+02  0.35136285641E+02 -0.37105417825E+02  0.52305553531E+02  0.47000000000E+01 0.  1.
          5    1    4    4  503    0 -0.15972707947E+02 -0.30771487790E+02  0.67980175877E+01  0.35641477285E+02  0.47000000000E+01 0. -1.
         -5    1    4    4    0  503  0.55105124255E+02  0.34568027910E+02 -0.73526465727E+02  0.98284049749E+02  0.47000000000E+01 0.  1.
<mgrwt>
<rscale>  0 0.11184311E+03</rscale>
<asrwt>0</asrwt>
<pdfrwt beam="1">  1        1 0.35298906E-01 0.11611788E+03</pdfrwt>
<pdfrwt beam="2">  1       -1 0.81442747E-02 0.11611788E+03</pdfrwt>
<totfact> 0.96191635E+03</totfact>
</mgrwt>
</event>
<event>
 8    1  0.6836165E-004  0.9532085E+02  0.7546771E-02  0.1292252E+00
         -1   -1    0    0    0  501 -0.00000000000E+00  0.00000000000E+00  0.16800935773E+02  0.16800935773E+02  0.00000000000E+00 0.  1.
          1   -1    0    0  501    0  0.00000000000E+00 -0.00000000000E+00 -0.80622748043E+03  0.80622748043E+03  0.00000000000E+00 0. -1.
         23    2    1    2    0    0 -0.17670326072E+02 -0.22796428894E+01 -0.14656794928E+03  0.17314132010E+03  0.90434041009E+02 0.  0.
         23    2    1    2    0    0  0.17670326072E+02  0.22796428894E+01 -0.64285859537E+03  0.64988709610E+03  0.93640946393E+02 0.  0.
          5    1    3    3  502    0  0.64277294670E+01  0.19725437767E+02 -0.13723757435E+03  0.13887638537E+03  0.47000000000E+01 0. -1.
         -5    1    4    4    0  503 -0.13300404204E+02  0.41393390499E+02 -0.24336911643E+03  0.24726692128E+03  0.47000000000E+01 0.  1.
          5    1    4    4  503    0  0.30970730276E+02 -0.39113747610E+02 -0.39948947895E+03  0.40262017482E+03  0.47000000000E+01 0. -1.
         -5    1    3    3    0  502 -0.24098055539E+02 -0.22005080656E+02 -0.93303749377E+01  0.34264934728E+02  0.47000000000E+01 0.  1.
<mgrwt>
<rscale>  0 0.94523797E+02</rscale>
<asrwt>0</asrwt>
<pdfrwt beam="1">  1        1 0.12403499E+00 0.95320848E+02</pdfrwt>
<pdfrwt beam="2">  1       -1 0.25847596E-02 0.95320848E+02</pdfrwt>
<totfact> 0.10034145E+04</totfact>
</mgrwt>
</event>
<event>
 8    1  0.6836165E-004  0.9221373E+02  0.7546771E-02  0.1298990E+00
          2   -1    0    0  501    0  0.00000000000E+00  0.00000000000E+00  0.59259811804E+03  0.59259811804E+03  0.00000000000E+00 0. -1.
         -2   -1    0    0    0  501 -0.00000000000E+00 -0.00000000000E+00 -0.16745179464E+02  0.16745179464E+02  0.00000000000E+00 0.  1.
         23    2    1    2    0    0  0.76673408606E+01  0.59209544375E+01  0.41482119153E+03  0.42494704777E+03  0.91703471287E+02 0.  0.
         23    2    1    2    0    0 -0.76673408606E+01 -0.59209544375E+01  0.16103174704E+03  0.18439624973E+03  0.89313535047E+02 0.  0.
          5    1    4    4  502    0 -0.20134699079E+02 -0.43606861038E+02  0.10508850104E+03  0.11564016382E+03  0.47000000000E+01 0. -1.
         -5    1    4    4    0  502  0.12467358218E+02  0.37685906601E+02  0.55943246003E+02  0.68756085917E+02  0.47000000000E+01 0.  1.
          5    1    3    3  503    0  0.10502323025E+02 -0.33967283946E+02  0.31900622919E+03  0.32101579312E+03  0.47000000000E+01 0. -1.
         -5    1    3    3    0  503 -0.28349821646E+01  0.39888238383E+02  0.95814962340E+02  0.10393125465E+03  0.47000000000E+01 0.  1.
<mgrwt>
<rscale>  0 0.91613813E+02</rscale>
<asrwt>0</asrwt>
<pdfrwt beam="1">  1        2 0.91168925E-01 0.92213733E+02</pdfrwt>
<pdfrwt beam="2">  1       -2 0.25761819E-02 0.92213733E+02</pdfrwt>
<totfact> 0.24635040E+04</totfact>
</mgrwt>
</event>
<event>
 8    1  0.6836165E-004  0.9579037E+02  0.7546771E-02  0.1289638E+00
         -2   -1    0    0    0  501 -0.00000000000E+00  0.00000000000E+00  0.64296236635E+02  0.64296236635E+02  0.00000000000E+00 0.  1.
          2   -1    0    0  501    0  0.00000000000E+00 -0.00000000000E+00 -0.20039060894E+03  0.20039060894E+03  0.00000000000E+00 0. -1.
         23    2    1    2    0    0 -0.41247073642E+00  0.22489115264E+02  0.34394615966E+01  0.95437071612E+02  0.92684811616E+02 0.  0.
         23    2    1    2    0    0  0.41247073642E+00 -0.22489115264E+02 -0.13953383391E+03  0.16924977397E+03  0.93112108482E+02 0.  0.
          5    1    4    4  502    0 -0.13118274358E+02  0.24463340209E+02 -0.10630997322E+03  0.10997474502E+03  0.47000000000E+01 0. -1.
         -5    1    3    3    0  503  0.10650979806E+01  0.58374164345E+02  0.72313588434E+01  0.59017455447E+02  0.47000000000E+01 0.  1.
          5    1    3    3  503    0 -0.14775687170E+01 -0.35885049081E+02 -0.37918972468E+01  0.36419616165E+02  0.47000000000E+01 0. -1.
         -5    1    4    4    0  502  0.13530745094E+02 -0.46952455472E+02 -0.33223860686E+02  0.59275028946E+02  0.47000000000E+01 0.  1.
<mgrwt>
<rscale>  0 0.95686378E+02</rscale>
<asrwt>0</asrwt>
<pdfrwt beam="1">  1        2 0.30829325E-01 0.95790371E+02</pdfrwt>
<pdfrwt beam="2">  1       -2 0.98917287E-02 0.95790371E+02</pdfrwt>
<totfact> 0.10505007E+04</totfact>
</mgrwt>
</event>
<event>
 8    1  0.6836165E-004  0.2004219E+03  0.7546771E-02  0.1149439E+00
          2   -1    0    0  501    0  0.00000000000E+00  0.00000000000E+00  0.77432739627E+03  0.77432739627E+03  0.00000000000E+00 0. -1.
         -2   -1    0    0    0  501 -0.00000000000E+00 -0.00000000000E+00 -0.62249636166E+02  0.62249636166E+02  0.00000000000E+00 0.  1.
         23    2    1    2    0    0  0.17806733517E+03 -0.87312670777E+01  0.18491587069E+03  0.27269549746E+03  0.91568248969E+02 0.  0.
         23    2    1    2    0    0 -0.17806733517E+03  0.87312670777E+01  0.52716188941E+03  0.56388153498E+03  0.90986355901E+02 0.  0.
          5    1    4    4  502    0 -0.57566143263E+02  0.29242725976E+02  0.96650667344E+02  0.11632901345E+03  0.47000000000E+01 0. -1.
         -5    1    3    3    0  503  0.80763467570E+02 -0.17336563132E+01  0.23901777390E+02  0.84374926492E+02  0.47000000000E+01 0.  1.
          5    1    3    3  503    0  0.97303867603E+02 -0.69976107645E+01  0.16101409330E+03  0.18832057096E+03  0.47000000000E+01 0. -1.
         -5    1    4    4    0  502 -0.12050119191E+03 -0.20511458898E+02  0.43051122207E+03  0.44755252152E+03  0.47000000000E+01 0.  1.
<mgrwt>
<rscale>  0 0.20035561E+03</rscale>
<asrwt>0</asrwt>
<pdfrwt beam="1">  1        2 0.11912729E+00 0.20042194E+03</pdfrwt>
<pdfrwt beam="2">  1       -2 0.95768676E-02 0.20042194E+03</pdfrwt>
<totfact> 0.26095899E+03</totfact>
</mgrwt>
</event>
<event>
 8    1  0.6836165E-004  0.1664967E+03  0.7546771E-02  0.1181607E+00
         -1   -1    0    0    0  501 -0.00000000000E+00  0.00000000000E+00  0.11200918712E+03  0.11200918712E+03  0.00000000000E+00 0.  1.
          1   -1    0    0  501    0  0.00000000000E+00 -0.00000000000E+00 -0.39082009420E+03  0.39082009420E+03  0.00000000000E+00 0. -1.
         23    2    1    2    0    0 -0.72949294700E+02  0.11915021129E+03  0.12958282085E+02  0.16700020463E+03  0.90569193577E+02 0.  0.
         23    2    1    2    0    0  0.72949294700E+02 -0.11915021129E+03 -0.29176918916E+03  0.33582907668E+03  0.90186121702E+02 0.  0.
          5    1    3    3  502    0  0.11678377472E+01  0.64484932650E+02 -0.22109617178E+02  0.68341755579E+02  0.47000000000E+01 0. -1.
         -5    1    3    3    0  502 -0.74117132447E+02  0.54665278641E+02  0.35067899263E+02  0.98658449054E+02  0.47000000000E+01 0.  1.
          5    1    4    4  503    0  0.43147515190E+01 -0.87008260221E+02 -0.18788463144E+03  0.20715158498E+03  0.47000000000E+01 0. -1.
         -5    1    4    4    0  503  0.68634543181E+02 -0.32141951071E+02 -0.10388455772E+03  0.12867749170E+03  0.47000000000E+01 0.  1.
<mgrwt>
<rscale>  0 0.16644466E+03</rscale>
<asrwt>0</asrwt>
<pdfrwt beam="1">  1        1 0.60126168E-01 0.16649670E+03</pdfrwt>
<pdfrwt beam="2">  1       -1 0.17232183E-01 0.16649670E+03</pdfrwt>
<totfact> 0.15888320E+03</totfact>
</mgrwt>
</event>
<event>
 8    1  0.6836165E-004  0.1220383E+03  0.7546771E-02  0.1240122E+00
         -1   -1    0    0    0  501 -0.00000000000E+00  0.00000000000E+00  0.16929781905E+02  0.16929781905E+02  0.00000000000E+00 0.  1.
          1   -1    0    0  501    0  0.00000000000E+00 -0.00000000000E+00 -0.87787186846E+03  0.87787186846E+03  0.00000000000E+00 0. -1.
         23    2    1    2    0    0  0.96703511874E+01 -0.80368443476E+02 -0.46357046629E+03  0.47936512092E+03  0.91327649407E+02 0.  0.
         23    2    1    2    0    0 -0.96703511874E+01  0.80368443476E+02 -0.39737162027E+03  0.41543652944E+03  0.90170410893E+02 0.  0.
          5    1    3    3  502    0  0.23257058016E+02  0.34803135852E+01 -0.22123563130E+03  0.22253156604E+03  0.47000000000E+01 0. -1.
         -5    1    4    4    0  503 -0.38525054836E+02  0.77616858782E+02 -0.23675661804E+03  0.25215935993E+03  0.47000000000E+01 0.  1.
          5    1    4    4  503    0  0.28854703649E+02  0.27515846942E+01 -0.16061500223E+03  0.16327716951E+03  0.47000000000E+01 0. -1.
         -5    1    3    3    0  502 -0.13586706829E+02 -0.83848757061E+02 -0.24233483499E+03  0.25683355488E+03  0.47000000000E+01 0.  1.
<mgrwt>
<rscale>  0 0.12182181E+03</rscale>
<asrwt>0</asrwt>
<pdfrwt beam="1">  1        1 0.13505719E+00 0.12203828E+03</pdfrwt>
<pdfrwt beam="2">  1       -1 0.26045821E-02 0.12203828E+03</pdfrwt>
<totfact> 0.88569909E+03</totfact>
</mgrwt>
</event>
<event>
 8    1  0.6836165E-004  0.9716366E+02  0.7546771E-02  0.1287289E+00
          3   -1    0    0  501    0  0.00000000000E+00  0.00000000000E+00  0.13833799076E+03  0.13833799076E+03  0.00000000000E+00 0. -1.
         -3   -1    0    0    0  501 -0.00000000000E+00 -0.00000000000E+00 -0.80331136663E+02  0.80331136663E+02  0.00000000000E+00 0.  1.
         23    2    1    2    0    0 -0.31486193703E+02 -0.41097219716E+01 -0.15182421420E+02  0.98342684220E+02  0.91828685120E+02 0.  0.
         23    2    1    2    0    0  0.31486193703E+02  0.41097219716E+01  0.73189275513E+02  0.12032644320E+03  0.90075039130E+02 0.  0.
          5    1    4    4  502    0  0.53408117515E+02  0.22261517735E+02  0.23010141783E+02  0.62446447563E+02  0.47000000000E+01 0. -1.
         -5    1    4    4    0  502 -0.21921923812E+02 -0.18151795763E+02  0.50179133730E+02  0.57879995637E+02  0.47000000000E+01 0.  1.
          5    1    3    3  503    0 -0.40518417315E+02 -0.41163663372E+02 -0.15217069533E+02  0.59915261237E+02  0.47000000000E+01 0.  1.
         -5    1    3    3    0  503  0.90322236118E+01  0.37053941400E+02  0.34648112375E-01  0.38427422983E+02  0.47000000000E+01 0. -1.
<mgrwt>
<rscale>  0 0.96747083E+02</rscale>
<asrwt>0</asrwt>
<pdfrwt beam="1">  1        3 0.21282768E-01 0.97163664E+02</pdfrwt>
<pdfrwt beam="2">  1       -3 0.12358636E-01 0.97163664E+02</pdfrwt>
<totfact> 0.22320026E+03</totfact>
</mgrwt>
</event>
<event>
 8    1  0.6836165E-004  0.9535952E+02  0.7546771E-02  0.1291297E+00
          1   -1    0    0  501    0  0.00000000000E+00  0.00000000000E+00  0.42817773356E+03  0.42817773356E+03  0.00000000000E+00 0. -1.
         -1   -1    0    0    0  501 -0.00000000000E+00 -0.00000000000E+00 -0.20963980366E+02  0.20963980366E+02  0.00000000000E+00 0.  1.
         23    2    1    2    0    0 -0.78671834946E+01 -0.99448227036E+01  0.21659993996E+03  0.23600545570E+03  0.92856066343E+02 0.  0.
         23    2    1    2    0    0  0.78671834946E+01  0.99448227036E+01  0.19061381323E+03  0.21313625822E+03  0.94512680091E+02 0.  0.
          5    1    4    4  502    0  0.13529415655E+02  0.46483493319E+02  0.59625904229E+02  0.76948675715E+02  0.47000000000E+01 0. -1.
         -5    1    3    3    0  503 -0.23467789537E+02  0.56694056231E+01  0.75326475153E+01  0.25723726100E+02  0.47000000000E+01 0.  1.
          5    1    3    3  503    0  0.15600606043E+02 -0.15614228327E+02  0.20906729244E+03  0.21028172960E+03  0.47000000000E+01 0. -1.
         -5    1    4    4    0  502 -0.56622321603E+01 -0.36538670615E+02  0.13098790900E+03  0.13618758251E+03  0.47000000000E+01 0.  1.
<mgrwt>
<rscale>  0 0.94946437E+02</rscale>
<asrwt>0</asrwt>
<pdfrwt beam="1">  1        1 0.65873491E-01 0.95359524E+02</pdfrwt>
<pdfrwt beam="2">  1       -1 0.32252281E-02 0.95359524E+02</pdfrwt>
<totfact> 0.17112072E+04</totfact>
</mgrwt>
</event>
<event>
 8    1  0.6836165E-004  0.9538869E+02  0.7546771E-02  0.1291631E+00
         -4   -1    0    0    0  501 -0.00000000000E+00  0.00000000000E+00  0.31524031832E+02  0.31524031832E+02  0.00000000000E+00 0.  1.
          4   -1    0    0  501    0  0.00000000000E+00 -0.00000000000E+00 -0.28490688201E+03  0.28490688201E+03  0.00000000000E+00 0. -1.
         23    2    1    2    0    0 -0.10666159212E-01 -0.13261959391E+02 -0.14217721725E+03  0.16991915597E+03  0.92099287620E+02 0.  0.
         23    2    1    2    0    0  0.10666159212E-01  0.13261959391E+02 -0.11120563294E+03  0.14651175788E+03  0.94462281993E+02 0.  0.
          5    1    4    4  502    0 -0.43025899408E+02  0.15221964873E+02 -0.31077511595E+02  0.55415141986E+02  0.47000000000E+01 0. -1.
         -5    1    3    3    0  503  0.11119146777E+02  0.34558890247E+02 -0.29829739483E+02  0.47221347691E+02  0.47000000000E+01 0.  1.
          5    1    3    3  503    0 -0.11129812937E+02 -0.47820849638E+02 -0.11234747776E+03  0.12269780828E+03  0.47000000000E+01 0. -1.
         -5    1    4    4    0  502  0.43036565567E+02 -0.19600054813E+01 -0.80128121341E+02  0.91096615892E+02  0.47000000000E+01 0.  1.
<mgrwt>
<rscale>  0 0.94798368E+02</rscale>
<asrwt>0</asrwt>
<pdfrwt beam="1">  1        4 0.43831827E-01 0.95388691E+02</pdfrwt>
<pdfrwt beam="2">  1       -4 0.48498511E-02 0.95388691E+02</pdfrwt>
<totfact> 0.19203864E+03</totfact>
</mgrwt>
</event>
<event>
 8    1  0.6836165E-004  0.9233042E+02  0.7546771E-02  0.1297428E+00
         -3   -1    0    0    0  501 -0.00000000000E+00  0.00000000000E+00  0.20632457998E+02  0.20632457998E+02  0.00000000000E+00 0.  1.
          3   -1    0    0  501    0  0.00000000000E+00 -0.00000000000E+00 -0.52534183555E+03  0.52534183555E+03  0.00000000000E+00 0. -1.
         23    2    1    2    0    0  0.49446995701E+01  0.13688914905E+02 -0.12591475801E+03  0.15613914394E+03  0.91176035990E+02 0.  0.
         23    2    1    2    0    0 -0.49446995701E+01 -0.13688914905E+02 -0.37879461954E+03  0.38983514961E+03  0.90962869544E+02 0.  0.
          5    1    4    4  502    0  0.29683490147E+02  0.16338317311E+02 -0.73340659225E+02  0.80925845658E+02  0.47000000000E+01 0. -1.
         -5    1    4    4    0  502 -0.34628189717E+02 -0.30027232216E+02 -0.30545396031E+03  0.30890930395E+03  0.47000000000E+01 0.  1.
          5    1    3    3  503    0  0.42315664622E+02 -0.13128663160E+02 -0.76022736441E+02  0.88116534911E+02  0.47000000000E+01 0. -1.
         -5    1    3    3    0  503 -0.37370965052E+02  0.26817578065E+02 -0.49892021572E+02  0.68022609026E+02  0.47000000000E+01 0.  1.
<mgrwt>
<rscale>  0 0.92277749E+02</rscale>
<asrwt>0</asrwt>
<pdfrwt beam="1">  1        3 0.80821819E-01 0.92330417E+02</pdfrwt>
<pdfrwt beam="2">  1       -3 0.31742244E-02 0.92330417E+02</pdfrwt>
<totfact> 0.14611646E+03</totfact>
</mgrwt>
</event>
<event>
 8    1  0.6836165E-004  0.1058125E+03  0.7546771E-02  0.1268833E+00
         -1   -1    0    0    0  501 -0.00000000000E+00  0.00000000000E+00  0.62909020359E+03  0.62909020359E+03  0.00000000000E+00 0.  1.
          1   -1    0    0  501    0  0.00000000000E+00 -0.00000000000E+00 -0.17710126750E+02  0.17710126750E+02  0.00000000000E+00 0. -1.
         23    2    1    2    0    0 -0.49661650372E+02 -0.39794199271E+01  0.31684219590E+03  0.33404381137E+03  0.93349748306E+02 0.  0.
         23    2    1    2    0    0  0.49661650372E+02  0.39794199271E+01  0.29453788094E+03  0.31275651897E+03  0.92638877102E+02 0.  0.
          5    1    3    3  502    0 -0.17824407992E+02  0.26037526822E+02  0.29825342272E+02  0.43672684426E+02  0.47000000000E+01 0. -1.
         -5    1    4    4    0  503  0.64079190185E+02 -0.26399304279E+02  0.22303459309E+03  0.23360133903E+03  0.47000000000E+01 0.  1.
          5    1    4    4  503    0 -0.14417539812E+02  0.30378724206E+02  0.71503287849E+02  0.79155179944E+02  0.47000000000E+01 0. -1.
         -5    1    3    3    0  502 -0.31837242380E+02 -0.30016946749E+02  0.28701685363E+03  0.29037112694E+03  0.47000000000E+01 0.  1.
<mgrwt>
<rscale>  0 0.10565552E+03</rscale>
<asrwt>0</asrwt>
<pdfrwt beam="1">  1        1 0.27246354E-02 0.10581253E+03</pdfrwt>
<pdfrwt beam="2">  1       -1 0.96783091E-01 0.10581253E+03</pdfrwt>
<totfact> 0.39850188E+03</totfact>
</mgrwt>
</event>
<event>
 8    1  0.6836165E-004  0.1234563E+03  0.7546771E-02  0.1239775E+00
         -1   -1    0    0    0  501 -0.00000000000E+00  0.00000000000E+00  0.57824374860E+02  0.57824374860E+02  0.00000000000E+00 0.  1.
          1   -1    0    0  501    0  0.00000000000E+00 -0.00000000000E+00 -0.33003775129E+03  0.33003775129E+03  0.00000000000E+00 0. -1.
         23    2    1    2    0    0 -0.71567756220E+02  0.43012359768E+02 -0.22810778095E+03  0.25676384619E+03  0.83201599493E+02 0.  0.
         23    2    1    2    0    0  0.71567756220E+02 -0.43012359768E+02 -0.44105595487E+02  0.13109827996E+03  0.90936508802E+02 0.  0.
          5    1    4    4  502    0  0.67563193979E+02  0.90046214045E+01 -0.11189699030E+02  0.69232707239E+02  0.47000000000E+01 0. -1.
         -5    1    4    4    0  502  0.40045622412E+01 -0.52016981173E+02 -0.32915896457E+02  0.61865572725E+02  0.47000000000E+01 0.  1.
          5    1    3    3  503    0 -0.87416707227E+02  0.20535541555E+02 -0.17734792923E+03  0.19884106008E+03  0.47000000000E+01 0. -1.
         -5    1    3    3    0  503  0.15848951006E+02  0.22476818213E+02 -0.50759851712E+02  0.57922786110E+02  0.47000000000E+01 0.  1.
<mgrwt>
<rscale>  0 0.12203667E+03</rscale>
<asrwt>0</asrwt>
<pdfrwt beam="1">  1        1 0.50775038E-01 0.12345629E+03</pdfrwt>
<pdfrwt beam="2">  1       -1 0.88960577E-02 0.12345629E+03</pdfrwt>
<totfact> 0.54025652E+03</totfact>
</mgrwt>
</event>
<event>
 8    1  0.6836165E-004  0.1050572E+03  0.7546771E-02  0.1270929E+00
         -1   -1    0    0    0  501 -0.00000000000E+00  0.00000000000E+00  0.12602308920E+03  0.12602308920E+03  0.00000000000E+00 0.  1.
          1   -1    0    0  501    0  0.00000000000E+00 -0.00000000000E+00 -0.88347557366E+02  0.88347557366E+02  0.00000000000E+00 0. -1.
         23    2    1    2    0    0 -0.11673010768E+02  0.48021211480E+02  0.36326250249E+02  0.11116026389E+03  0.92707668934E+02 0.  0.
         23    2    1    2    0    0  0.11673010768E+02 -0.48021211480E+02  0.13492815859E+01  0.10321038267E+03  0.90599484538E+02 0.  0.
          5    1    4    4  502    0  0.24275777428E+02 -0.68609097151E+02  0.15891537795E+02  0.74640153772E+02  0.47000000000E+01 0. -1.
         -5    1    3    3    0  503 -0.24451266364E+02 -0.10797028659E+02  0.42548607274E+02  0.50466961823E+02  0.47000000000E+01 0.  1.
          5    1    3    3  503    0  0.12778255596E+02  0.58818240139E+02 -0.62223570255E+01  0.60693302069E+02  0.47000000000E+01 0. -1.
         -5    1    4    4    0  502 -0.12602766660E+02  0.20587885671E+02 -0.14542256209E+02  0.28570228902E+02  0.47000000000E+01 0.  1.
<mgrwt>
<rscale>  0 0.10459016E+03</rscale>
<asrwt>0</asrwt>
<pdfrwt beam="1">  1        1 0.13591932E-01 0.10505716E+03</pdfrwt>
<pdfrwt beam="2">  1       -1 0.19388168E-01 0.10505716E+03</pdfrwt>
<totfact> 0.83231932E+03</totfact>
</mgrwt>
</event>
<event>
 8    1  0.6836165E-004  0.9980743E+02  0.7546771E-02  0.1281904E+00
         -1   -1    0    0    0  501 -0.00000000000E+00  0.00000000000E+00  0.18495082831E+03  0.18495082831E+03  0.00000000000E+00 0.  1.
          1   -1    0    0  501    0  0.00000000000E+00 -0.00000000000E+00 -0.57218515386E+03  0.57218515386E+03  0.00000000000E+00 0. -1.
         23    2    1    2    0    0 -0.26834246523E+02  0.26994952062E+02  0.16690744613E+03  0.19447266984E+03  0.92264400050E+02 0.  0.
         23    2    1    2    0    0  0.26834246523E+02 -0.26994952062E+02 -0.55414177168E+03  0.56266331234E+03  0.89822579083E+02 0.  0.
          5    1    3    3  502    0 -0.15486526283E+02  0.55845591239E+02  0.62081557416E+02  0.85057464860E+02  0.47000000000E+01 0. -1.
         -5    1    4    4    0  503  0.40266427689E+02  0.21465220074E+02 -0.22056002298E+03  0.22527972525E+03  0.47000000000E+01 0.  1.
          5    1    4    4  503    0 -0.13432181166E+02 -0.48460172136E+02 -0.33358174869E+03  0.33738358709E+03  0.47000000000E+01 0. -1.
         -5    1    3    3    0  502 -0.11347720239E+02 -0.28850639177E+02  0.10482588871E+03  0.10941520498E+03  0.47000000000E+01 0.  1.
<mgrwt>
<rscale>  0 0.99239394E+02</rscale>
<asrwt>0</asrwt>
<pdfrwt beam="1">  1        1 0.88028485E-01 0.99807433E+02</pdfrwt>
<pdfrwt beam="2">  1       -1 0.28453974E-01 0.99807433E+02</pdfrwt>
<totfact> 0.42926760E+02</totfact>
</mgrwt>
</event>
<event>
 7    1  0.6836165E-004  0.1513514E+03  0.7546771E-02  0.1210141E+00
          1   -1    0    0  501    0  0.00000000000E+00  0.00000000000E+00  0.18262798827E+03  0.18262798827E+03  0.00000000000E+00 0. -1.
         -1   -1    0    0    0  501 -0.00000000000E+00 -0.00000000000E+00 -0.11436393490E+03  0.11436393490E+03  0.00000000000E+00 0.  1.
         23    2    1    2    0    0  0.57088483798E+02  0.42680131275E+02 -0.22229606085E+02  0.12065036899E+03  0.94771660126E+02 0.  0.
          5    1    1    2  502    0 -0.67747859913E+02 -0.32122950758E+01  0.11115232259E+03  0.13029589471E+03  0.47000000000E+01 0. -1.
         -5    1    3    3    0  503  0.82894856852E+02  0.40101834931E+02 -0.18258193053E+02  0.93995564102E+02  0.47000000000E+01 0.  1.
          5    1    3    3  503    0 -0.25806373053E+02  0.25782963444E+01 -0.39714130322E+01  0.26654804889E+02  0.47000000000E+01 0. -1.
         -5    1    1    2    0  502  0.10659376115E+02 -0.39467836200E+02 -0.20658663125E+02  0.46045659465E+02  0.47000000000E+01 0.  1.
<mgrwt>
<rscale>  0 0.14239576E+03</rscale>
<asrwt>0</asrwt>
<pdfrwt beam="1">  1        1 0.28096614E-01 0.15135138E+03</pdfrwt>
<pdfrwt beam="2">  1       -1 0.17594452E-01 0.15135138E+03</pdfrwt>
<totfact> 0.39571194E+03</totfact>
</mgrwt>
</event>
<event>
 8    1  0.1136418E-003  0.9528501E+02  0.7546771E-02  0.1292747E+00
         -1   -1    0    0    0  501 -0.00000000000E+00  0.00000000000E+00  0.85168162186E+02  0.85168162186E+02  0.00000000000E+00 0.  1.
          1   -1    0    0  501    0  0.00000000000E+00 -0.00000000000E+00 -0.28023928418E+03  0.28023928418E+03  0.00000000000E+00 0. -1.
         23    2    1    2    0    0 -0.10785501879E+02  0.44879636993E+01 -0.24383260492E+03  0.26178917373E+03  0.94566185253E+02 0.  0.
         23    2    1    2    0    0  0.10785501879E+02 -0.44879636993E+01  0.48761482919E+02  0.10361827264E+03  0.90678527443E+02 0.  0.
          5    1    3    3  502    0  0.22933233181E+02  0.14993857341E+02 -0.21259696638E+03  0.21440687735E+03  0.47000000000E+01 0. -1.
         -5    1    4    4    0  503  0.13645978079E+02 -0.46263699025E+02  0.19109234881E+02  0.52094101613E+02  0.47000000000E+01 0.  1.
          5    1    4    4  503    0 -0.28604761998E+01  0.41775735326E+02  0.29652248039E+02  0.51524171025E+02  0.47000000000E+01 0. -1.
         -5    1    3    3    0  502 -0.33718735061E+02 -0.10505893642E+02 -0.31235638537E+02  0.47382296379E+02  0.47000000000E+01 0.  1.
<mgrwt>
<rscale>  0 0.94305741E+02</rscale>
<asrwt>0</asrwt>
<pdfrwt beam="1">  1        1 0.43113737E-01 0.95285005E+02</pdfrwt>
<pdfrwt beam="2">  1       -1 0.13102794E-01 0.95285005E+02</pdfrwt>
<totfact> 0.36052243E+03</totfact>
</mgrwt>
</event>
<event>
 8    1  0.6836165E-004  0.1149426E+03  0.7546771E-02  0.1252918E+00
         -3   -1    0    0    0  501 -0.00000000000E+00  0.00000000000E+00  0.52325669906E+02  0.52325669906E+02  0.00000000000E+00 0.  1.
          3   -1    0    0  501    0  0.00000000000E+00 -0.00000000000E+00 -0.25106602067E+03  0.25106602067E+03  0.00000000000E+00 0. -1.
         23    2    1    2    0    0  0.21526512741E+02 -0.64508621174E+02 -0.11887423404E+03  0.16342595707E+03  0.89175147710E+02 0.  0.
         23    2    1    2    0    0 -0.21526512741E+02  0.64508621174E+02 -0.79866116728E+02  0.13996573351E+03  0.92666374694E+02 0.  0.
          5    1    4    4  502    0  0.29656472366E+02  0.10155649906E+01 -0.37162606418E+02  0.47787938240E+02  0.47000000000E+01 0. -1.
         -5    1    4    4    0  502 -0.51182985106E+02  0.63493056184E+02 -0.42703510310E+02  0.92177795269E+02  0.47000000000E+01 0.  1.
          5    1    3    3  503    0  0.24486944586E+02 -0.27058953542E-01 -0.88475981474E+02  0.91922252394E+02  0.47000000000E+01 0. -1.
         -5    1    3    3    0  503 -0.29604318459E+01 -0.64481562221E+02 -0.30398252562E+02  0.71503704673E+02  0.47000000000E+01 0.  1.
<mgrwt>
<rscale>  0 0.11423727E+03</rscale>
<asrwt>0</asrwt>
<pdfrwt beam="1">  1        3 0.38625542E-01 0.11494264E+03</pdfrwt>
<pdfrwt beam="2">  1       -3 0.80501030E-02 0.11494264E+03</pdfrwt>
<totfact> 0.15663838E+03</totfact>
</mgrwt>
</event>
<event>
 8    1  0.6836165E-004  0.1011776E+03  0.7546771E-02  0.1278023E+00
         -4   -1    0    0    0  501 -0.00000000000E+00  0.00000000000E+00  0.45825761523E+02  0.45825761523E+02  0.00000000000E+00 0.  1.
          4   -1    0    0  501    0  0.00000000000E+00 -0.00000000000E+00 -0.30997059006E+03  0.30997059006E+03  0.00000000000E+00 0. -1.
         23    2    1    2    0    0 -0.23714835718E+02 -0.34785394846E+02 -0.22668611232E+03  0.24824079636E+03  0.92002621330E+02 0.  0.
         23    2    1    2    0    0  0.23714835718E+02  0.34785394846E+02 -0.37458716213E+02  0.10755555522E+03  0.91611270650E+02 0.  0.
          5    1    4    4  502    0 -0.12983232676E+02 -0.22989436044E+02  0.44179449246E+01  0.27178792057E+02  0.47000000000E+01 0. -1.
         -5    1    3    3    0  503 -0.32835814373E+02  0.23920348457E+02 -0.78355088239E+02  0.88385426563E+02  0.47000000000E+01 0.  1.
          5    1    3    3  503    0  0.91209786555E+01 -0.58705743303E+02 -0.14833102408E+03  0.15985536980E+03  0.47000000000E+01 0. -1.
         -5    1    4    4    0  502  0.36698068394E+02  0.57774830890E+02 -0.41876661138E+02  0.80376763161E+02  0.47000000000E+01 0.  1.
<mgrwt>
<rscale>  0 0.10108851E+03</rscale>
<asrwt>0</asrwt>
<pdfrwt beam="1">  1        4 0.47687783E-01 0.10117756E+03</pdfrwt>
<pdfrwt beam="2">  1       -4 0.70501172E-02 0.10117756E+03</pdfrwt>
<totfact> 0.90112614E+02</totfact>
</mgrwt>
</event>
<event>
 8    1  0.6836165E-004  0.9442899E+02  0.7546771E-02  0.1292822E+00
          2   -1    0    0  501    0  0.00000000000E+00  0.00000000000E+00  0.11891471345E+03  0.11891471345E+03  0.00000000000E+00 0. -1.
         -2   -1    0    0    0  501 -0.00000000000E+00 -0.00000000000E+00 -0.11848446901E+03  0.11848446901E+03  0.00000000000E+00 0.  1.
         23    2    1    2    0    0 -0.18220359670E+02 -0.18690131174E+02 -0.72112826412E+02  0.11881537628E+03  0.90749828643E+02 0.  0.
         23    2    1    2    0    0  0.18220359670E+02  0.18690131174E+02  0.72543070860E+02  0.11858380618E+03  0.90101717230E+02 0.  0.
          5    1    3    3  502    0  0.20433010280E+02 -0.26058099426E+02  0.33161388830E+01  0.33609808566E+02  0.47000000000E+01 0. -1.
         -5    1    4    4    0  503 -0.13893210803E+02  0.47860312313E+02  0.35871652760E+02  0.61583246690E+02  0.47000000000E+01 0.  1.
          5    1    4    4  503    0  0.32113570473E+02 -0.29170181140E+02  0.36671418101E+02  0.57000559487E+02  0.47000000000E+01 0. -1.
         -5    1    3    3    0  502 -0.38653369950E+02  0.73679682523E+01 -0.75428965295E+02  0.85205567718E+02  0.47000000000E+01 0.  1.
<mgrwt>
<rscale>  0 0.94272930E+02</rscale>
<asrwt>0</asrwt>
<pdfrwt beam="1">  1        2 0.18294571E-01 0.94428989E+02</pdfrwt>
<pdfrwt beam="2">  1       -2 0.18228380E-01 0.94428989E+02</pdfrwt>
<totfact> 0.69858399E+03</totfact>
</mgrwt>
</event>
<event>
 8    1  0.6836165E-004  0.1143829E+03  0.7546771E-02  0.1261321E+00
         -2   -1    0    0    0  501 -0.00000000000E+00  0.00000000000E+00  0.30127648966E+02  0.30127648966E+02  0.00000000000E+00 0.  1.
          2   -1    0    0  501    0  0.00000000000E+00 -0.00000000000E+00 -0.42344768418E+03  0.42344768418E+03  0.00000000000E+00 0. -1.
         23    2    1    2    0    0  0.42461590918E+01  0.28218685559E+02 -0.29256693528E+03  0.31413189961E+03  0.11076603563E+03 0.  0.
         23    2    1    2    0    0 -0.42461590918E+01 -0.28218685559E+02 -0.10075309993E+03  0.13944343353E+03  0.92081268068E+02 0.  0.
          5    1    3    3  502    0  0.45830437808E+02  0.38314719697E+02 -0.98066293323E+02  0.11492403866E+03  0.47000000000E+01 0. -1.
         -5    1    3    3    0  502 -0.41584278716E+02 -0.10096034138E+02 -0.19450064196E+03  0.19920786095E+03  0.47000000000E+01 0.  1.
          5    1    4    4  503    0  0.20664201633E+02 -0.25489344658E+02 -0.10797116322E+03  0.11294502206E+03  0.47000000000E+01 0. -1.
         -5    1    4    4    0  503 -0.24910360724E+02 -0.27293409015E+01  0.72180632922E+01  0.26498411478E+02  0.47000000000E+01 0.  1.
<mgrwt>
<rscale>  0 0.10959528E+03</rscale>
<asrwt>0</asrwt>
<pdfrwt beam="1">  1        2 0.65145798E-01 0.11438286E+03</pdfrwt>
<pdfrwt beam="2">  1       -2 0.46350229E-02 0.11438286E+03</pdfrwt>
<totfact> 0.15310151E+04</totfact>
</mgrwt>
</event>
<event>
 8    1  0.6836165E-004  0.1088660E+03  0.7546771E-02  0.1268291E+00
          1   -1    0    0  501    0  0.00000000000E+00  0.00000000000E+00  0.26026015758E+02  0.26026015758E+02  0.00000000000E+00 0. -1.
         -1   -1    0    0    0  501 -0.00000000000E+00 -0.00000000000E+00 -0.40973769417E+03  0.40973769417E+03  0.00000000000E+00 0.  1.
         23    2    1    2    0    0 -0.67441631196E+01  0.38085470458E+02 -0.19687401143E+03  0.22496930593E+03  0.10176357618E+03 0.  0.
         23    2    1    2    0    0  0.67441631196E+01 -0.38085470458E+02 -0.18683766699E+03  0.21079440400E+03  0.89610156556E+02 0.  0.
          5    1    3    3  502    0  0.35603065524E+02  0.18467912566E+02 -0.16080599281E+03  0.16579897283E+03  0.47000000000E+01 0. -1.
         -5    1    4    4    0  503 -0.19921949947E+02 -0.48790031917E+02 -0.16795345717E+03  0.17609033216E+03  0.47000000000E+01 0.  1.
          5    1    4    4  503    0  0.26666113067E+02  0.10704561459E+02 -0.18884209811E+02  0.34704071841E+02  0.47000000000E+01 0. -1.
         -5    1    3    3    0  502 -0.42347228644E+02  0.19617557891E+02 -0.36068018619E+02  0.59170333095E+02  0.47000000000E+01 0.  1.
<mgrwt>
<rscale>  0 0.10593340E+03</rscale>
<asrwt>0</asrwt>
<pdfrwt beam="1">  1        1 0.40040026E-02 0.10886603E+03</pdfrwt>
<pdfrwt beam="2">  1       -1 0.63036565E-01 0.10886603E+03</pdfrwt>
<totfact> 0.56108606E+03</totfact>
</mgrwt>
</event>
<event>
 7    1  0.6836165E-004  0.2062243E+03  0.7546771E-02  0.1168462E+00
         -2   -1    0    0    0  501 -0.00000000000E+00  0.00000000000E+00  0.36951887765E+02  0.36951887765E+02  0.00000000000E+00 0.  1.
          2   -1    0    0  501    0  0.00000000000E+00 -0.00000000000E+00 -0.73641024144E+03  0.73641024144E+03  0.00000000000E+00 0. -1.
         23    2    1    2    0    0 -0.74581983713E+02 -0.52107337362E+01 -0.18819874577E+03  0.22207741701E+03  0.91159131166E+02 0.  0.
          5    1    3    3  502    0 -0.43827316154E+01  0.35852784382E+02 -0.56863162029E+02  0.67528806300E+02  0.47000000000E+01 0. -1.
         -5    1    3    3    0  502 -0.70199252098E+02 -0.41063518118E+02 -0.13133558374E+03  0.15454861071E+03  0.47000000000E+01 0.  1.
          5    1    1    2  503    0  0.96035961949E+02  0.80731039933E+02 -0.35073037239E+03  0.37252421521E+03  0.47000000000E+01 0. -1.
         -5    1    1    2    0  503 -0.21453978236E+02 -0.75520306197E+02 -0.16052923551E+03  0.17876049699E+03  0.47000000000E+01 0.  1.
<mgrwt>
<rscale>  0 0.17932059E+03</rscale>
<asrwt>0</asrwt>
<pdfrwt beam="1">  1        2 0.11329388E+00 0.20622426E+03</pdfrwt>
<pdfrwt beam="2">  1       -2 0.56849061E-02 0.20622426E+03</pdfrwt>
<totfact> 0.62430347E+03</totfact>
</mgrwt>
</event>
<event>
 8    1  0.6836165E-004  0.1675387E+03  0.7546771E-02  0.1181624E+00
          2   -1    0    0  501    0  0.00000000000E+00  0.00000000000E+00  0.11036969785E+04  0.11036969785E+04  0.00000000000E+00 0. -1.
         -2   -1    0    0    0  501 -0.00000000000E+00 -0.00000000000E+00 -0.34602402005E+02  0.34602402005E+02  0.00000000000E+00 0.  1.
         23    2    1    2    0    0 -0.95786504526E+02 -0.10389243689E+03  0.83284849242E+03  0.84867646851E+03  0.81525725894E+02 0.  0.
         23    2    1    2    0    0  0.95786504526E+02  0.10389243689E+03  0.23624608409E+03  0.28962291201E+03  0.90002922301E+02 0.  0.
          5    1    4    4  502    0  0.17819341482E+02  0.84919743227E+02  0.13080581904E+03  0.15703867045E+03  0.47000000000E+01 0. -1.
         -5    1    3    3    0  503 -0.18213381897E+02 -0.76470722745E+02  0.34129909437E+03  0.35026655640E+03  0.47000000000E+01 0.  1.
          5    1    3    3  503    0 -0.77573122630E+02 -0.27421714141E+02  0.49154939805E+03  0.49840991211E+03  0.47000000000E+01 0. -1.
         -5    1    4    4    0  502  0.77967163044E+02  0.18972693659E+02  0.10544026505E+03  0.13258424157E+03  0.47000000000E+01 0.  1.
<mgrwt>
<rscale>  0 0.16642841E+03</rscale>
<asrwt>0</asrwt>
<pdfrwt beam="1">  1        2 0.16979951E+00 0.16753871E+03</pdfrwt>
<pdfrwt beam="2">  1       -2 0.53234473E-02 0.16753871E+03</pdfrwt>
<totfact> 0.39953263E+03</totfact>
</mgrwt>
</event>
<event>
 8    1  0.6836165E-004  0.1603837E+03  0.7546771E-02  0.1190091E+00
         -1   -1    0    0    0  501 -0.00000000000E+00  0.00000000000E+00  0.75469994833E+02  0.75469994833E+02  0.00000000000E+00 0.  1.
          1   -1    0    0  501    0  0.00000000000E+00 -0.00000000000E+00 -0.36414294231E+03  0.36414294231E+03  0.00000000000E+00 0. -1.
         23    2    1    2    0    0 -0.44745713965E+02  0.11756893065E+03 -0.71967132124E+02  0.17001261214E+03  0.88884125734E+02 0.  0.
         23    2    1    2    0    0  0.44745713965E+02 -0.11756893065E+03 -0.21670581535E+03  0.26960032500E+03  0.99490162623E+02 0.  0.
          5    1    3    3  502    0 -0.32573112479E+02  0.33253281722E+00 -0.30797536860E+02  0.45074344269E+02  0.47000000000E+01 0. -1.
         -5    1    4    4    0  503 -0.24576171812E+02 -0.73617549661E+02 -0.95660539046E+02  0.12327433054E+03  0.47000000000E+01 0.  1.
          5    1    4    4  503    0  0.69321885777E+02 -0.43951380994E+02 -0.12104527630E+03  0.14632599446E+03  0.47000000000E+01 0. -1.
         -5    1    3    3    0  502 -0.12172601487E+02  0.11723639784E+03 -0.41169595264E+02  0.12493826787E+03  0.47000000000E+01 0.  1.
<mgrwt>
<rscale>  0 0.15877092E+03</rscale>
<asrwt>0</asrwt>
<pdfrwt beam="1">  1        1 0.56021990E-01 0.16038368E+03</pdfrwt>
<pdfrwt beam="2">  1       -1 0.11610769E-01 0.16038368E+03</pdfrwt>
<totfact> 0.32227299E+03</totfact>
</mgrwt>
</event>
<event>
 8    1  0.6836165E-004  0.1020969E+03  0.7546771E-02  0.1276021E+00
          1   -1    0    0  501    0  0.00000000000E+00  0.00000000000E+00  0.70187884069E+03  0.70187884069E+03  0.00000000000E+00 0. -1.
         -1   -1    0    0    0  501 -0.00000000000E+00 -0.00000000000E+00 -0.50912909152E+02  0.50912909152E+02  0.00000000000E+00 0.  1.
         23    2    1    2    0    0  0.33451982889E+02  0.28138135292E+02  0.85477325938E+01  0.10231121801E+03  0.92107175517E+02 0.  0.
         23    2    1    2    0    0 -0.33451982889E+02 -0.28138135292E+02  0.64241819894E+03  0.65048053183E+03  0.92265866587E+02 0.  0.
          5    1    3    3  502    0 -0.60580897652E+01  0.45179853546E+02  0.29214316966E+02  0.54345983604E+02  0.47000000000E+01 0. -1.
         -5    1    3    3    0  502  0.39510072654E+02 -0.17041718255E+02 -0.20666584372E+02  0.47965234408E+02  0.47000000000E+01 0.  1.
          5    1    4    4  503    0 -0.63559090300E+02 -0.28216218361E+02  0.38425098314E+03  0.39052121707E+03  0.47000000000E+01 0. -1.
         -5    1    4    4    0  503  0.30107107411E+02  0.78083069445E-01  0.25816721580E+03  0.25995931476E+03  0.47000000000E+01 0.  1.
<mgrwt>
<rscale>  0 0.10206105E+03</rscale>
<asrwt>0</asrwt>
<pdfrwt beam="1">  1        1 0.10798135E+00 0.10209691E+03</pdfrwt>
<pdfrwt beam="2">  1       -1 0.78327558E-02 0.10209691E+03</pdfrwt>
<totfact> 0.24320823E+03</totfact>
</mgrwt>
</event>
<event>
 8    1  0.6836165E-004  0.9790789E+02  0.7546771E-02  0.1285991E+00
         -1   -1    0    0    0  501 -0.00000000000E+00  0.00000000000E+00  0.23916618479E+02  0.23916618479E+02  0.00000000000E+00 0.  1.
          1   -1    0    0  501    0  0.00000000000E+00 -0.00000000000E+00 -0.39337055822E+03  0.39337055822E+03  0.00000000000E+00 0. -1.
         23    2    1    2    0    0 -0.19421146839E+02 -0.24350324569E+02 -0.17302595512E+03  0.19880627954E+03  0.92821529767E+02 0.  0.
         23    2    1    2    0    0  0.19421146839E+02  0.24350324569E+02 -0.19642798462E+03  0.21848089715E+03  0.90442412780E+02 0.  0.
          5    1    3    3  502    0 -0.36285715153E+02 -0.52943933624E+02 -0.11581370566E+03  0.13249384005E+03  0.47000000000E+01 0. -1.
         -5    1    4    4    0  503 -0.33337152237E+02  0.24062190670E+02 -0.68625087151E+02  0.80136429454E+02  0.47000000000E+01 0.  1.
          5    1    4    4  503    0  0.52758299076E+02  0.28813389845E+00 -0.12780289746E+03  0.13834446770E+03  0.47000000000E+01 0. -1.
         -5    1    3    3    0  502  0.16864568314E+02  0.28593609055E+02 -0.57212249461E+02  0.66312439494E+02  0.47000000000E+01 0.  1.
<mgrwt>
<rscale>  0 0.97339837E+02</rscale>
<asrwt>0</asrwt>
<pdfrwt beam="1">  1        1 0.60518547E-01 0.97907894E+02</pdfrwt>
<pdfrwt beam="2">  1       -1 0.36794798E-02 0.97907894E+02</pdfrwt>
<totfact> 0.15758270E+04</totfact>
</mgrwt>
</event>
<event>
 8    1  0.6836165E-004  0.1103796E+03  0.7546771E-02  0.1259900E+00
         -2   -1    0    0    0  501 -0.00000000000E+00  0.00000000000E+00  0.54126085165E+02  0.54126085165E+02  0.00000000000E+00 0.  1.
          2   -1    0    0  501    0  0.00000000000E+00 -0.00000000000E+00 -0.23041021591E+03  0.23041021591E+03  0.00000000000E+00 0. -1.
         23    2    1    2    0    0  0.57749746326E+02 -0.23294634115E+02 -0.11005086249E+03  0.15586803250E+03  0.91137138657E+02 0.  0.
         23    2    1    2    0    0 -0.57749746326E+02  0.23294634115E+02 -0.66233268257E+02  0.12866826857E+03  0.91054952279E+02 0.  0.
          5    1    4    4  502    0 -0.78845649416E+02  0.10012560312E+02 -0.65812036125E+02  0.10329666933E+03  0.47000000000E+01 0. -1.
         -5    1    3    3    0  503  0.79543067973E+02 -0.99073973232E+01 -0.99366249120E+02  0.12775366002E+03  0.47000000000E+01 0.  1.
          5    1    3    3  503    0 -0.21793321647E+02 -0.13387236791E+02 -0.10684613370E+02  0.28114372484E+02  0.47000000000E+01 0. -1.
         -5    1    4    4    0  502  0.21095903089E+02  0.13282073803E+02 -0.42123213161E+00  0.25371599243E+02  0.47000000000E+01 0.  1.
<mgrwt>
<rscale>  0 0.11036261E+03</rscale>
<asrwt>0</asrwt>
<pdfrwt beam="1">  1        2 0.35447725E-01 0.11037958E+03</pdfrwt>
<pdfrwt beam="2">  1       -2 0.83270902E-02 0.11037958E+03</pdfrwt>
<totfact> 0.11967646E+04</totfact>
</mgrwt>
</event>
<event>
 8    1  0.6836165E-004  0.3818037E+03  0.7546771E-02  0.1050519E+00
         -1   -1    0    0    0  501 -0.00000000000E+00  0.00000000000E+00  0.55034765402E+03  0.55034765402E+03  0.00000000000E+00 0.  1.
          1   -1    0    0  501    0  0.00000000000E+00 -0.00000000000E+00 -0.33215470950E+03  0.33215470950E+03  0.00000000000E+00 0. -1.
         23    2    1    2    0    0 -0.29325392287E+03  0.22220895353E+03  0.31012266286E+03  0.48978723818E+03  0.91327927615E+02 0.  0.
         23    2    1    2    0    0  0.29325392287E+03 -0.22220895353E+03 -0.91929718345E+02  0.39271512534E+03  0.10197751836E+03 0.  0.
          5    1    3    3  502    0 -0.74022991959E+02  0.10415943843E+03  0.13069490676E+03  0.18284376009E+03  0.47000000000E+01 0. -1.
         -5    1    4    4    0  503  0.26160935578E+03 -0.16838014095E+03 -0.44831403446E+02  0.31436168919E+03  0.47000000000E+01 0.  1.
          5    1    4    4  503    0  0.31644567090E+02 -0.53828812574E+02 -0.47098314898E+02  0.78353436145E+02  0.47000000000E+01 0. -1.
         -5    1    3    3    0  502 -0.21923093091E+03  0.11804951510E+03  0.17942775610E+03  0.30694347809E+03  0.47000000000E+01 0.  1.
<mgrwt>
<rscale>  0 0.38112556E+03</rscale>
<asrwt>0</asrwt>
<pdfrwt beam="1">  1        1 0.51100725E-01 0.38180374E+03</pdfrwt>
<pdfrwt beam="2">  1       -1 0.84668870E-01 0.38180374E+03</pdfrwt>
<totfact> 0.11094375E+02</totfact>
</mgrwt>
</event>
<event>
 8    1  0.6836165E-004  0.9441615E+02  0.7546771E-02  0.1296331E+00
         -2   -1    0    0    0  501 -0.00000000000E+00  0.00000000000E+00  0.55503949779E+02  0.55503949779E+02  0.00000000000E+00 0.  1.
          2   -1    0    0  501    0  0.00000000000E+00 -0.00000000000E+00 -0.22768934622E+03  0.22768934622E+03  0.00000000000E+00 0. -1.
         23    2    1    2    0    0  0.16898205911E+01 -0.15500328482E+02 -0.12612264869E+01  0.87925580747E+02  0.86522837337E+02 0.  0.
         23    2    1    2    0    0 -0.16898205911E+01  0.15500328482E+02 -0.17092416995E+03  0.19526771525E+03  0.93119778075E+02 0.  0.
          5    1    4    4  502    0  0.14234589556E+02 -0.21296896620E+02 -0.14493368146E+03  0.14725502832E+03  0.47000000000E+01 0. -1.
         -5    1    3    3    0  503  0.33669517213E+02 -0.18610245805E+02  0.25036570004E+02  0.46139976981E+02  0.47000000000E+01 0.  1.
          5    1    3    3  503    0 -0.31979696622E+02  0.31099173231E+01 -0.26297796491E+02  0.41785603766E+02  0.47000000000E+01 0. -1.
         -5    1    4    4    0  502 -0.15924410147E+02  0.36797225103E+02 -0.25990488494E+02  0.48012686927E+02  0.47000000000E+01 0.  1.
<mgrwt>
<rscale>  0 0.92747528E+02</rscale>
<asrwt>0</asrwt>
<pdfrwt beam="1">  1        2 0.35029131E-01 0.94416147E+02</pdfrwt>
<pdfrwt beam="2">  1       -2 0.85390690E-02 0.94416147E+02</pdfrwt>
<totfact> 0.11497934E+04</totfact>
</mgrwt>
</event>
<event>
 8    1  0.6836165E-004  0.1098866E+03  0.7546771E-02  0.1263426E+00
         -1   -1    0    0    0  501 -0.00000000000E+00  0.00000000000E+00  0.97608152904E+02  0.97608152904E+02  0.00000000000E+00 0.  1.
          1   -1    0    0  501    0  0.00000000000E+00 -0.00000000000E+00 -0.16610219909E+03  0.16610219909E+03  0.00000000000E+00 0. -1.
         23    2    1    2    0    0  0.68884818986E+01  0.41459618402E+02  0.36403369953E+02  0.11575954315E+03  0.10153184400E+03 0.  0.
         23    2    1    2    0    0 -0.68884818986E+01 -0.41459618402E+02 -0.10489741613E+03  0.14795080884E+03  0.95496716089E+02 0.  0.
          5    1    4    4  502    0 -0.19501552287E+02  0.44666028504E+01 -0.97356858948E+02  0.99502306842E+02  0.47000000000E+01 0. -1.
         -5    1    3    3    0  503  0.30320501920E+02  0.47882011820E+02  0.59216593537E+02  0.82101856512E+02  0.47000000000E+01 0.  1.
          5    1    3    3  503    0 -0.23432020022E+02 -0.64223934172E+01 -0.22813223584E+02  0.33657686638E+02  0.47000000000E+01 0. -1.
         -5    1    4    4    0  502  0.12613070388E+02 -0.45926221253E+02 -0.75405571865E+01  0.48448501998E+02  0.47000000000E+01 0.  1.
<mgrwt>
<rscale>  0 0.10847183E+03</rscale>
<asrwt>0</asrwt>
<pdfrwt beam="1">  1        1 0.25554184E-01 0.10988661E+03</pdfrwt>
<pdfrwt beam="2">  1       -1 0.15016639E-01 0.10988661E+03</pdfrwt>
<totfact> 0.56070545E+03</totfact>
</mgrwt>
</event>
<event>
 8    1  0.6836165E-004  0.1079768E+03  0.7546771E-02  0.1267897E+00
         -2   -1    0    0    0  501 -0.00000000000E+00  0.00000000000E+00  0.50960059114E+02  0.50960059114E+02  0.00000000000E+00 0.  1.
          2   -1    0    0  501    0  0.00000000000E+00 -0.00000000000E+00 -0.23111289307E+03  0.23111289307E+03  0.00000000000E+00 0. -1.
         23    2    1    2    0    0  0.50079664588E+02 -0.32397113319E+02 -0.48672261435E+02  0.11193735705E+03  0.81261535268E+02 0.  0.
         23    2    1    2    0    0 -0.50079664588E+02  0.32397113319E+02 -0.13148057252E+03  0.17013559513E+03  0.90007966446E+02 0.  0.
          5    1    4    4  502    0 -0.25081169535E+02 -0.29038301363E+02 -0.67919450286E+02  0.78150046311E+02  0.47000000000E+01 0. -1.
         -5    1    4    4    0  502 -0.24998495052E+02  0.61435414682E+02 -0.63561122239E+02  0.91985548823E+02  0.47000000000E+01 0.  1.
          5    1    3    3  503    0  0.28069323589E+02 -0.40499013626E+02 -0.65928517222E+02  0.82442200446E+02  0.47000000000E+01 0. -1.
         -5    1    3    3    0  503  0.22010340999E+02  0.81019003062E+01  0.17256255786E+02  0.29495156606E+02  0.47000000000E+01 0.  1.
<mgrwt>
<rscale>  0 0.10613648E+03</rscale>
<asrwt>0</asrwt>
<pdfrwt beam="1">  1        2 0.35555830E-01 0.10797676E+03</pdfrwt>
<pdfrwt beam="2">  1       -2 0.78400091E-02 0.10797676E+03</pdfrwt>
<totfact> 0.13060962E+04</totfact>
</mgrwt>
</event>
<event>
 8    1  0.6836165E-004  0.1750655E+03  0.7546771E-02  0.1172834E+00
         -2   -1    0    0    0  501 -0.00000000000E+00  0.00000000000E+00  0.40325189552E+02  0.40325189552E+02  0.00000000000E+00 0.  1.
          2   -1    0    0  501    0  0.00000000000E+00 -0.00000000000E+00 -0.77682855659E+03  0.77682855659E+03  0.00000000000E+00 0. -1.
         23    2    1    2    0    0  0.10035556777E+03 -0.10741232023E+03 -0.30249621469E+03  0.34916854321E+03  0.93840636961E+02 0.  0.
         23    2    1    2    0    0 -0.10035556777E+03  0.10741232023E+03 -0.43400715234E+03  0.46798520292E+03  0.95075208923E+02 0.  0.
          5    1    3    3  502    0 -0.13514756190E+02 -0.38776949415E+02 -0.74317821003E+02  0.85038396971E+02  0.47000000000E+01 0. -1.
         -5    1    4    4    0  503 -0.43934727750E+02  0.32643458161E+02 -0.55727149987E+02  0.78252545702E+02  0.47000000000E+01 0.  1.
          5    1    4    4  503    0 -0.56420840024E+02  0.74768862073E+02 -0.37828000235E+03  0.38973265722E+03  0.47000000000E+01 0. -1.
         -5    1    3    3    0  502  0.11387032396E+03 -0.68635370819E+02 -0.22817839369E+03  0.26413014624E+03  0.47000000000E+01 0.  1.
<mgrwt>
<rscale>  0 0.17489845E+03</rscale>
<asrwt>0</asrwt>
<pdfrwt beam="1">  1        2 0.11951207E+00 0.17506554E+03</pdfrwt>
<pdfrwt beam="2">  1       -2 0.62038760E-02 0.17506554E+03</pdfrwt>
<totfact> 0.50804571E+03</totfact>
</mgrwt>
</event>
<event>
 8    1  0.6836165E-004  0.1158758E+03  0.7546771E-02  0.1250099E+00
         -1   -1    0    0    0  501 -0.00000000000E+00  0.00000000000E+00  0.51133812891E+02  0.51133812891E+02  0.00000000000E+00 0.  1.
          1   -1    0    0  501    0  0.00000000000E+00 -0.00000000000E+00 -0.29687375198E+03  0.29687375198E+03  0.00000000000E+00 0. -1.
         23    2    1    2    0    0  0.68850513472E+02 -0.19592785359E+01 -0.63520151125E+02  0.13206486649E+03  0.93070335685E+02 0.  0.
         23    2    1    2    0    0 -0.68850513472E+02  0.19592785359E+01 -0.18221978797E+03  0.21594269838E+03  0.93182433328E+02 0.  0.
          5    1    4    4  502    0 -0.46335450769E+02 -0.42647452103E+02 -0.12341476284E+03  0.13863287076E+03  0.47000000000E+01 0. -1.
         -5    1    4    4    0  502 -0.22515062702E+02  0.44606730639E+02 -0.58805025127E+02  0.77309827622E+02  0.47000000000E+01 0.  1.
          5    1    3    3  503    0  0.55324200718E+02 -0.44329336897E+02 -0.38041268167E+02  0.80592092531E+02  0.47000000000E+01 0. -1.
         -5    1    3    3    0  503  0.13526312754E+02  0.42370058361E+02 -0.25478882958E+02  0.51472773959E+02  0.47000000000E+01 0.  1.
<mgrwt>
<rscale>  0 0.11585325E+03</rscale>
<asrwt>0</asrwt>
<pdfrwt beam="1">  1        1 0.45672884E-01 0.11587579E+03</pdfrwt>
<pdfrwt beam="2">  1       -1 0.78667406E-02 0.11587579E+03</pdfrwt>
<totfact> 0.73796348E+03</totfact>
</mgrwt>
</event>
<event>
 8    1  0.6836165E-004  0.1140413E+03  0.7546771E-02  0.1254197E+00
          1   -1    0    0  501    0  0.00000000000E+00  0.00000000000E+00  0.21089460082E+03  0.21089460082E+03  0.00000000000E+00 0. -1.
         -1   -1    0    0    0  501 -0.00000000000E+00 -0.00000000000E+00 -0.12635773563E+03  0.12635773563E+03  0.00000000000E+00 0.  1.
         23    2    1    2    0    0  0.34110203962E+02  0.52584023254E+02 -0.79241898500E+02  0.13886931683E+03  0.95272363053E+02 0.  0.
         23    2    1    2    0    0 -0.34110203962E+02 -0.52584023254E+02  0.16377876369E+03  0.19838301962E+03  0.92756420395E+02 0.  0.
          5    1    4    4  502    0 -0.52711173219E+02 -0.13069293032E+02  0.41667803537E+02  0.68611734085E+02  0.47000000000E+01 0.  1.
         -5    1    3    3    0  503  0.49498984149E+02  0.71738409064E+02 -0.71048944271E+02  0.11254595172E+03  0.47000000000E+01 0.  1.
          5    1    3    3  503    0 -0.15388780187E+02 -0.19154385810E+02 -0.81929542290E+01  0.26323365104E+02  0.47000000000E+01 0. -1.
         -5    1    4    4    0  502  0.18600969257E+02 -0.39514730222E+02  0.12211096015E+03  0.12977128554E+03  0.47000000000E+01 0. -1.
<mgrwt>
<rscale>  0 0.11351429E+03</rscale>
<asrwt>0</asrwt>
<pdfrwt beam="1">  1        1 0.32445323E-01 0.11404126E+03</pdfrwt>
<pdfrwt beam="2">  1       -1 0.19439652E-01 0.11404126E+03</pdfrwt>
<totfact> 0.27832392E+03</totfact>
</mgrwt>
</event>
<event>
 8    1  0.6836165E-004  0.1403814E+03  0.7546771E-02  0.1212947E+00
          1   -1    0    0  501    0  0.00000000000E+00  0.00000000000E+00  0.76151723133E+03  0.76151723133E+03  0.00000000000E+00 0. -1.
         -1   -1    0    0    0  501 -0.00000000000E+00 -0.00000000000E+00 -0.25807044011E+02  0.25807044011E+02  0.00000000000E+00 0.  1.
         23    2    1    2    0    0 -0.24463006317E+02  0.10477363953E+03  0.36769765660E+03  0.39344591267E+03  0.89566541226E+02 0.  0.
         23    2    1    2    0    0  0.24463006317E+02 -0.10477363953E+03  0.36801253071E+03  0.39387836267E+03  0.90171988986E+02 0.  0.
          5    1    4    4  502    0  0.41895588047E+02 -0.50884478438E+02  0.28955243147E+03  0.29699692089E+03  0.47000000000E+01 0. -1.
         -5    1    3    3    0  503 -0.56400107733E+02  0.55795821276E+02  0.24242318521E+03  0.25511808355E+03  0.47000000000E+01 0.  1.
          5    1    3    3  503    0  0.31937101416E+02  0.48977818255E+02  0.12527447139E+03  0.13832782912E+03  0.47000000000E+01 0. -1.
         -5    1    4    4    0  502 -0.17432581730E+02 -0.53889161093E+02  0.78460099240E+02  0.96881441782E+02  0.47000000000E+01 0.  1.
<mgrwt>
<rscale>  0 0.14028428E+03</rscale>
<asrwt>0</asrwt>
<pdfrwt beam="1">  1        1 0.11715648E+00 0.14038142E+03</pdfrwt>
<pdfrwt beam="2">  1       -1 0.39703150E-02 0.14038142E+03</pdfrwt>
<totfact> 0.59922910E+03</totfact>
</mgrwt>
</event>
<event>
 8    1  0.6836165E-004  0.1011420E+03  0.7546771E-02  0.1278151E+00
          2   -1    0    0  501    0  0.00000000000E+00  0.00000000000E+00  0.31024496844E+03  0.31024496844E+03  0.00000000000E+00 0. -1.
         -2   -1    0    0    0  501 -0.00000000000E+00 -0.00000000000E+00 -0.42396562750E+02  0.42396562750E+02  0.00000000000E+00 0.  1.
         23    2    1    2    0    0 -0.28987472249E+02  0.35161255083E+02  0.21747363823E+03  0.23964894686E+03  0.89778878383E+02 0.  0.
         23    2    1    2    0    0  0.28987472249E+02 -0.35161255083E+02  0.50374767461E+02  0.11299258432E+03  0.90294626135E+02 0.  0.
          5    1    3    3  502    0  0.41344637963E+01  0.53041760987E+02  0.17370357958E+03  0.18172932003E+03  0.47000000000E+01 0. -1.
         -5    1    4    4    0  503 -0.30748837180E+02 -0.24102019205E+02  0.12683271657E+02  0.41344330901E+02  0.47000000000E+01 0.  1.
          5    1    4    4  503    0  0.59736309430E+02 -0.11059235878E+02  0.37691495804E+02  0.71648253422E+02  0.47000000000E+01 0.  1.
         -5    1    3    3    0  502 -0.33121936045E+02 -0.17880505904E+02  0.43770058643E+02  0.57919626832E+02  0.47000000000E+01 0.  1.
<mgrwt>
<rscale>  0 0.10102678E+03</rscale>
<asrwt>0</asrwt>
<pdfrwt beam="1">  1        2 0.47729994E-01 0.10114201E+03</pdfrwt>
<pdfrwt beam="2">  1       -2 0.65225483E-02 0.10114201E+03</pdfrwt>
<totfact> 0.12598860E+04</totfact>
</mgrwt>
</event>
<event>
 7    1  0.6836165E-004  0.2091994E+03  0.7546771E-02  0.1171850E+00
         -1   -1    0    0    0  501 -0.00000000000E+00  0.00000000000E+00  0.19087702874E+02  0.19087702874E+02  0.00000000000E+00 0.  1.
          1   -1    0    0  501    0  0.00000000000E+00 -0.00000000000E+00 -0.14292892134E+04  0.14292892134E+04  0.00000000000E+00 0. -1.
         23    2    1    2    0    0 -0.25582598592E+02 -0.45166249748E+02 -0.70807569170E+03  0.71574805896E+03  0.90717359233E+02 0.  0.
          5    1    1    2  502    0 -0.71613526249E+02 -0.33737013342E+02 -0.20093626775E+03  0.21601888091E+03  0.47000000000E+01 0. -1.
         -5    1    1    2    0  502  0.97196124840E+02  0.78903263090E+02 -0.50118955103E+03  0.51660997636E+03  0.47000000000E+01 0.  1.
          5    1    3    3  503    0 -0.58102090532E+02 -0.18220876824E+02 -0.36897499809E+03  0.37399531079E+03  0.47000000000E+01 0. -1.
         -5    1    3    3    0  503  0.32519491940E+02 -0.26945372924E+02 -0.33910069360E+03  0.34175274817E+03  0.47000000000E+01 0.  1.
<mgrwt>
<rscale>  0 0.17588082E+03</rscale>
<asrwt>0</asrwt>
<pdfrwt beam="1">  1        1 0.21989066E+00 0.20919937E+03</pdfrwt>
<pdfrwt beam="2">  1       -1 0.29365695E-02 0.20919937E+03</pdfrwt>
<totfact> 0.30973562E+03</totfact>
</mgrwt>
</event>
<event>
 8    1  0.6836165E-004  0.1035653E+03  0.7546771E-02  0.1274298E+00
         -1   -1    0    0    0  501 -0.00000000000E+00  0.00000000000E+00  0.77240613181E+03  0.77240613181E+03  0.00000000000E+00 0.  1.
          1   -1    0    0  501    0  0.00000000000E+00 -0.00000000000E+00 -0.14921844179E+02  0.14921844179E+02  0.00000000000E+00 0. -1.
         23    2    1    2    0    0  0.24124099807E+02  0.33014020636E+02  0.26329071622E+03  0.28292715948E+03  0.95151871095E+02 0.  0.
         23    2    1    2    0    0 -0.24124099807E+02 -0.33014020636E+02  0.49419357141E+03  0.50440081651E+03  0.92309262385E+02 0.  0.
          5    1    3    3  502    0  0.27847194979E+02  0.62371183383E+02  0.13732279318E+03  0.15344468160E+03  0.47000000000E+01 0. -1.
         -5    1    3    3    0  502 -0.37230951724E+01 -0.29357162747E+02  0.12596792305E+03  0.12948247788E+03  0.47000000000E+01 0.  1.
          5    1    4    4  503    0  0.26261354515E+02  0.14152134271E+02  0.19423698849E+03  0.19657069808E+03  0.47000000000E+01 0. -1.
         -5    1    4    4    0  503 -0.50385454322E+02 -0.47166154907E+02  0.29995658292E+03  0.30783011843E+03  0.47000000000E+01 0.  1.
<mgrwt>
<rscale>  0 0.10290773E+03</rscale>
<asrwt>0</asrwt>
<pdfrwt beam="1">  1        1 0.22956689E-02 0.10356532E+03</pdfrwt>
<pdfrwt beam="2">  1       -1 0.11883168E+00 0.10356532E+03</pdfrwt>
<totfact> 0.31823002E+03</totfact>
</mgrwt>
</event>
<event>
 8    1  0.6836165E-004  0.9810949E+02  0.7546771E-02  0.1286163E+00
         -1   -1    0    0    0  501 -0.00000000000E+00  0.00000000000E+00  0.15009469840E+02  0.15009469840E+02  0.00000000000E+00 0.  1.
          1   -1    0    0  501    0  0.00000000000E+00 -0.00000000000E+00 -0.69027723568E+03  0.69027723568E+03  0.00000000000E+00 0. -1.
         23    2    1    2    0    0  0.22883443322E+02 -0.11732728461E+02 -0.23006092875E+03  0.25010698495E+03  0.94679269568E+02 0.  0.
         23    2    1    2    0    0 -0.22883443322E+02  0.11732728461E+02 -0.44520683709E+03  0.45517972057E+03  0.91203844953E+02 0.  0.
          5    1    3    3  502    0  0.37873099856E+02 -0.46331508195E+02 -0.14593028599E+03  0.15779327842E+03  0.47000000000E+01 0. -1.
         -5    1    3    3    0  502 -0.14989656533E+02  0.34598779733E+02 -0.84130642758E+02  0.92313706528E+02  0.47000000000E+01 0.  1.
          5    1    4    4  503    0 -0.72575773002E+01 -0.39591038580E+02 -0.17124063284E+03  0.17597035858E+03  0.47000000000E+01 0. -1.
         -5    1    4    4    0  503 -0.15625866022E+02  0.51323767042E+02 -0.27396620425E+03  0.27920936199E+03  0.47000000000E+01 0.  1.
<mgrwt>
<rscale>  0 0.97261172E+02</rscale>
<asrwt>0</asrwt>
<pdfrwt beam="1">  1        1 0.10619652E+00 0.98109495E+02</pdfrwt>
<pdfrwt beam="2">  1       -1 0.23091487E-02 0.98109495E+02</pdfrwt>
<totfact> 0.14797563E+04</totfact>
</mgrwt>
</event>
<event>
 8    1  0.6836165E-004  0.1543531E+03  0.7546771E-02  0.1195250E+00
         -1   -1    0    0    0  501 -0.00000000000E+00  0.00000000000E+00  0.38834007564E+02  0.38834007564E+02  0.00000000000E+00 0.  1.
          1   -1    0    0  501    0  0.00000000000E+00 -0.00000000000E+00 -0.61344340674E+03  0.61344340674E+03  0.00000000000E+00 0. -1.
         23    2    1    2    0    0 -0.55475196237E+02  0.11110831959E+03 -0.28008165584E+03  0.31975451130E+03  0.91513154664E+02 0.  0.
         23    2    1    2    0    0  0.55475196237E+02 -0.11110831959E+03 -0.29452774334E+03  0.33252290301E+03  0.91664242494E+02 0.  0.
          5    1    4    4  502    0  0.13153251296E+02 -0.10938990920E+03 -0.23170074248E+03  0.25660569815E+03  0.47000000000E+01 0. -1.
         -5    1    4    4    0  502  0.42321944941E+02 -0.17184103875E+01 -0.62827000854E+02  0.75917204863E+02  0.47000000000E+01 0.  1.
          5    1    3    3  503    0  0.22885807951E+02  0.48480090108E+02 -0.10043231815E+03  0.11394217775E+03  0.47000000000E+01 0. -1.
         -5    1    3    3    0  503 -0.78361004188E+02  0.62628229480E+02 -0.17964933770E+03  0.20581233355E+03  0.47000000000E+01 0.  1.
<mgrwt>
<rscale>  0 0.15433071E+03</rscale>
<asrwt>0</asrwt>
<pdfrwt beam="1">  1        1 0.94375905E-01 0.15435313E+03</pdfrwt>
<pdfrwt beam="2">  1       -1 0.59744629E-02 0.15435313E+03</pdfrwt>
<totfact> 0.44698536E+03</totfact>
</mgrwt>
</event>
<event>
 8    1  0.6836165E-004  0.9663573E+02  0.7546771E-02  0.1287776E+00
         -4   -1    0    0    0  501 -0.00000000000E+00  0.00000000000E+00  0.83238253306E+02  0.83238253306E+02  0.00000000000E+00 0.  1.
          4   -1    0    0  501    0  0.00000000000E+00 -0.00000000000E+00 -0.12858098744E+03  0.12858098744E+03  0.00000000000E+00 0. -1.
         23    2    1    2    0    0 -0.19258551664E+02 -0.19782873622E+02  0.15770545595E+02  0.97480724111E+02  0.92149484881E+02 0.  0.
         23    2    1    2    0    0  0.19258551664E+02  0.19782873622E+02 -0.61113279732E+02  0.11433851664E+03  0.92607826487E+02 0.  0.
          5    1    3    3  502    0  0.32420893411E+02 -0.17741037774E+02  0.24819234473E+02  0.44765423606E+02  0.47000000000E+01 0. -1.
         -5    1    3    3    0  502 -0.51679445075E+02 -0.20418358477E+01 -0.90486888781E+01  0.52715300505E+02  0.47000000000E+01 0.  1.
          5    1    4    4  503    0  0.96468642518E+01  0.46472784004E+02 -0.69584951546E+02  0.84361941210E+02  0.47000000000E+01 0. -1.
         -5    1    4    4    0  503  0.96116874123E+01 -0.26689910382E+02  0.84716718143E+01  0.29976575429E+02  0.47000000000E+01 0.  1.
<mgrwt>
<rscale>  0 0.96525751E+02</rscale>
<asrwt>0</asrwt>
<pdfrwt beam="1">  1        4 0.19781690E-01 0.96635725E+02</pdfrwt>
<pdfrwt beam="2">  1       -4 0.12805885E-01 0.96635725E+02</pdfrwt>
<totfact> 0.17331980E+03</totfact>
</mgrwt>
</event>
<event>
 8    1  0.6836165E-004  0.2011785E+03  0.7546771E-02  0.1148960E+00
          3   -1    0    0  501    0  0.00000000000E+00  0.00000000000E+00  0.56802676183E+02  0.56802676183E+02  0.00000000000E+00 0. -1.
         -3   -1    0    0    0  501 -0.00000000000E+00 -0.00000000000E+00 -0.77930365725E+03  0.77930365725E+03  0.00000000000E+00 0.  1.
         23    2    1    2    0    0 -0.17279736377E+03 -0.49250134639E+02 -0.48603465514E+03  0.52564036737E+03  0.88224742124E+02 0.  0.
         23    2    1    2    0    0  0.17279736377E+03  0.49250134639E+02 -0.23646632592E+03  0.31046596606E+03  0.90489160114E+02 0.  0.
          5    1    4    4  502    0  0.13782603773E+03  0.15765589027E+02 -0.11721795758E+03  0.18167748912E+03  0.47000000000E+01 0. -1.
         -5    1    3    3    0  503 -0.11962216489E+03 -0.57476534740E+02 -0.41907069161E+03  0.43960817662E+03  0.47000000000E+01 0.  1.
          5    1    3    3  503    0 -0.53175198881E+02  0.82264001014E+01 -0.66963963532E+02  0.86032190758E+02  0.47000000000E+01 0. -1.
         -5    1    4    4    0  502  0.34971326038E+02  0.33484545612E+02 -0.11924836834E+03  0.12878847694E+03  0.47000000000E+01 0.  1.
<mgrwt>
<rscale>  0 0.20092596E+03</rscale>
<asrwt>0</asrwt>
<pdfrwt beam="1">  1        3 0.87388735E-02 0.20117851E+03</pdfrwt>
<pdfrwt beam="2">  1       -3 0.11989287E+00 0.20117851E+03</pdfrwt>
<totfact> 0.13359523E+02</totfact>
</mgrwt>
</event>
<event>
 8    1  0.6836165E-004  0.9611472E+02  0.7546771E-02  0.1290341E+00
          2   -1    0    0  501    0  0.00000000000E+00  0.00000000000E+00  0.11749018627E+03  0.11749018627E+03  0.00000000000E+00 0. -1.
         -2   -1    0    0    0  501 -0.00000000000E+00 -0.00000000000E+00 -0.76829556500E+02  0.76829556500E+02  0.00000000000E+00 0.  1.
         23    2    1    2    0    0  0.31948473003E+02 -0.31126483949E+01  0.11529590592E+02  0.93887393380E+02  0.87472953930E+02 0.  0.
         23    2    1    2    0    0 -0.31948473003E+02  0.31126483949E+01  0.29131039182E+02  0.10043234939E+03  0.90596058709E+02 0.  0.
          5    1    4    4  502    0  0.18448328971E+02  0.25440678543E+02  0.31921601148E+02  0.45040510504E+02  0.47000000000E+01 0. -1.
         -5    1    3    3    0  503  0.27198992287E+02 -0.43294729526E+02 -0.72491314384E+00  0.51350114754E+02  0.47000000000E+01 0.  1.
          5    1    3    3  503    0  0.47494807158E+01  0.40182081131E+02  0.12254503736E+02  0.42537278626E+02  0.47000000000E+01 0. -1.
         -5    1    4    4    0  502 -0.50396801974E+02 -0.22328030148E+02 -0.27905619667E+01  0.55391838890E+02  0.47000000000E+01 0.  1.
<mgrwt>
<rscale>  0 0.95371661E+02</rscale>
<asrwt>0</asrwt>
<pdfrwt beam="1">  1        2 0.18075413E-01 0.96114720E+02</pdfrwt>
<pdfrwt beam="2">  1       -2 0.11819932E-01 0.96114720E+02</pdfrwt>
<totfact> 0.14289358E+04</totfact>
</mgrwt>
</event>
<event>
 8    1  0.6836165E-004  0.1678013E+03  0.7546771E-02  0.1180332E+00
          2   -1    0    0  501    0  0.00000000000E+00  0.00000000000E+00  0.67263706347E+02  0.67263706347E+02  0.00000000000E+00 0. -1.
         -2   -1    0    0    0  501 -0.00000000000E+00 -0.00000000000E+00 -0.82851621047E+03  0.82851621047E+03  0.00000000000E+00 0.  1.
         23    2    1    2    0    0 -0.13818996657E+03 -0.22435278859E+02 -0.64601308128E+02  0.17920461510E+03  0.91329931907E+02 0.  0.
         23    2    1    2    0    0  0.13818996657E+03  0.22435278859E+02 -0.69665119599E+03  0.71657530172E+03  0.92506570326E+02 0.  0.
          5    1    3    3  502    0 -0.48708632807E+02  0.16474901031E+02  0.14361274928E+02  0.53593744891E+02  0.47000000000E+01 0. -1.
         -5    1    3    3    0  502 -0.89481333765E+02 -0.38910179890E+02 -0.78962583056E+02  0.12561087021E+03  0.47000000000E+01 0.  1.
          5    1    4    4  503    0  0.59397405415E+02  0.44538014994E+01 -0.11775770032E+03  0.13204868081E+03  0.47000000000E+01 0. -1.
         -5    1    4    4    0  503  0.78792561157E+02  0.17981477359E+02 -0.57889349567E+03  0.58452662091E+03  0.47000000000E+01 0.  1.
<mgrwt>
<rscale>  0 0.16763961E+03</rscale>
<asrwt>0</asrwt>
<pdfrwt beam="1">  1        2 0.10348262E-01 0.16780129E+03</pdfrwt>
<pdfrwt beam="2">  1       -2 0.12746404E+00 0.16780129E+03</pdfrwt>
<totfact> 0.29289309E+02</totfact>
</mgrwt>
</event>
<event>
 8    1  0.6836165E-004  0.1086407E+03  0.7546771E-02  0.1264713E+00
         -1   -1    0    0    0  501 -0.00000000000E+00  0.00000000000E+00  0.11518929394E+03  0.11518929394E+03  0.00000000000E+00 0.  1.
          1   -1    0    0  501    0  0.00000000000E+00 -0.00000000000E+00 -0.10009103018E+03  0.10009103018E+03  0.00000000000E+00 0. -1.
         23    2    1    2    0    0  0.31081717755E+02  0.48291523839E+02  0.17069550592E+02  0.10997354027E+03  0.92220743592E+02 0.  0.
         23    2    1    2    0    0 -0.31081717755E+02 -0.48291523839E+02 -0.19712868325E+01  0.10530678385E+03  0.88246746675E+02 0.  0.
          5    1    3    3  502    0 -0.19289166660E+02  0.47246566987E+02 -0.10554209655E+02  0.52323908339E+02  0.47000000000E+01 0. -1.
         -5    1    4    4    0  503  0.61477527176E+01  0.20463461206E+02  0.13158881740E+02  0.25530261978E+02  0.47000000000E+01 0.  1.
          5    1    4    4  503    0 -0.37229470473E+02 -0.68754985045E+02 -0.15130168572E+02  0.79776521868E+02  0.47000000000E+01 0. -1.
         -5    1    3    3    0  502  0.50370884415E+02  0.10449568524E+01  0.27623760247E+02  0.57649631930E+02  0.47000000000E+01 0.  1.
<mgrwt>
<rscale>  0 0.10779276E+03</rscale>
<asrwt>0</asrwt>
<pdfrwt beam="1">  1        1 0.15398620E-01 0.10864074E+03</pdfrwt>
<pdfrwt beam="2">  1       -1 0.17721430E-01 0.10864074E+03</pdfrwt>
<totfact> 0.81955364E+03</totfact>
</mgrwt>
</event>
<event>
 8    1  0.6836165E-004  0.1113562E+03  0.7546771E-02  0.1258832E+00
          2   -1    0    0  501    0  0.00000000000E+00  0.00000000000E+00  0.31918129578E+03  0.31918129578E+03  0.00000000000E+00 0. -1.
         -2   -1    0    0    0  501 -0.00000000000E+00 -0.00000000000E+00 -0.39691647326E+02  0.39691647326E+02  0.00000000000E+00 0.  1.
         23    2    1    2    0    0  0.12112035028E+02  0.63700862131E+02  0.17458969218E+03  0.20707910917E+03  0.90530081244E+02 0.  0.
         23    2    1    2    0    0 -0.12112035028E+02 -0.63700862131E+02  0.10489995627E+03  0.15179383394E+03  0.88503479967E+02 0.  0.
          5    1    3    3  502    0 -0.36042733416E+02  0.42842476055E+02  0.68237875278E+02  0.88391481541E+02  0.47000000000E+01 0. -1.
         -5    1    4    4    0  503 -0.37299357361E+02 -0.13565808969E+02  0.81596373721E+02  0.90858854477E+02  0.47000000000E+01 0. -1.
          5    1    4    4  503    0  0.25187322333E+02 -0.50135053162E+02  0.23303582552E+02  0.60934979459E+02  0.47000000000E+01 0.  1.
         -5    1    3    3    0  502  0.48154768443E+02  0.20858386076E+02  0.10635181691E+03  0.11868762763E+03  0.47000000000E+01 0.  1.
<mgrwt>
<rscale>  0 0.11094357E+03</rscale>
<asrwt>0</asrwt>
<pdfrwt beam="1">  1        2 0.49104813E-01 0.11135617E+03</pdfrwt>
<pdfrwt beam="2">  1       -2 0.61064075E-02 0.11135617E+03</pdfrwt>
<totfact> 0.13625472E+04</totfact>
</mgrwt>
</event>
<event>
 8    1  0.6836165E-004  0.1034450E+03  0.7546771E-02  0.1275730E+00
          2   -1    0    0  501    0  0.00000000000E+00  0.00000000000E+00  0.62724724557E+03  0.62724724557E+03  0.00000000000E+00 0. -1.
         -2   -1    0    0    0  501 -0.00000000000E+00 -0.00000000000E+00 -0.17109319828E+02  0.17109319828E+02  0.00000000000E+00 0.  1.
         23    2    1    2    0    0  0.28374888538E+02  0.43011864630E+02  0.24052433478E+03  0.26182592297E+03  0.89697845664E+02 0.  0.
         23    2    1    2    0    0 -0.28374888538E+02 -0.43011864630E+02  0.36961359096E+03  0.38253064243E+03  0.84025775672E+02 0.  0.
          5    1    3    3  502    0 -0.74570717741E+01  0.26132267932E+02  0.20946499307E+03  0.21127275420E+03  0.47000000000E+01 0. -1.
         -5    1    3    3    0  502  0.35831960312E+02  0.16879596698E+02  0.31059341712E+02  0.50553168764E+02  0.47000000000E+01 0.  1.
          5    1    4    4  503    0  0.59766427638E+01 -0.53629354169E+02  0.14075802952E+03  0.15082022663E+03  0.47000000000E+01 0. -1.
         -5    1    4    4    0  503 -0.34351531302E+02  0.10617489539E+02  0.22885556145E+03  0.23171041580E+03  0.47000000000E+01 0.  1.
<mgrwt>
<rscale>  0 0.10220333E+03</rscale>
<asrwt>0</asrwt>
<pdfrwt beam="1">  1        2 0.96499559E-01 0.10344495E+03</pdfrwt>
<pdfrwt beam="2">  1       -2 0.26322035E-02 0.10344495E+03</pdfrwt>
<totfact> 0.22650502E+04</totfact>
</mgrwt>
</event>
<event>
 8    1  0.6836165E-004  0.9936698E+02  0.7546771E-02  0.1282378E+00
          1   -1    0    0  501    0  0.00000000000E+00  0.00000000000E+00  0.38751257161E+03  0.38751257161E+03  0.00000000000E+00 0. -1.
         -1   -1    0    0    0  501 -0.00000000000E+00 -0.00000000000E+00 -0.35843923376E+02  0.35843923376E+02  0.00000000000E+00 0.  1.
         23    2    1    2    0    0  0.34566115129E+02  0.12462142628E+02  0.60943700118E+02  0.11656727901E+03  0.92323749045E+02 0.  0.
         23    2    1    2    0    0 -0.34566115129E+02 -0.12462142628E+02  0.29072494812E+03  0.30678921598E+03  0.90821287531E+02 0.  0.
          5    1    4    4  502    0 -0.54041571089E+02  0.40022743100E+01  0.26402232909E+03  0.26956704150E+03  0.47000000000E+01 0. -1.
         -5    1    4    4    0  502  0.19475455961E+02 -0.16464416938E+02  0.26702619033E+02  0.37222174482E+02  0.47000000000E+01 0.  1.
          5    1    3    3  503    0 -0.11245958094E+02 -0.27013619513E+02  0.44945576406E+02  0.53836809444E+02  0.47000000000E+01 0. -1.
         -5    1    3    3    0  503  0.45812073223E+02  0.39475762141E+02  0.15998123712E+02  0.62730469565E+02  0.47000000000E+01 0.  1.
<mgrwt>
<rscale>  0 0.99016529E+02</rscale>
<asrwt>0</asrwt>
<pdfrwt beam="1">  1        1 0.59617316E-01 0.99366976E+02</pdfrwt>
<pdfrwt beam="2">  1       -1 0.55144500E-02 0.99366976E+02</pdfrwt>
<totfact> 0.88991705E+03</totfact>
</mgrwt>
</event>
<event>
 8    1  0.6836165E-004  0.1081413E+03  0.7546771E-02  0.1265355E+00
          1   -1    0    0  501    0  0.00000000000E+00  0.00000000000E+00  0.31419165604E+03  0.31419165604E+03  0.00000000000E+00 0. -1.
         -1   -1    0    0    0  501 -0.00000000000E+00 -0.00000000000E+00 -0.39295388951E+02  0.39295388951E+02  0.00000000000E+00 0.  1.
         23    2    1    2    0    0  0.34177304496E+02  0.48108136715E+02  0.18791778049E+03  0.21681243663E+03  0.90620414315E+02 0.  0.
         23    2    1    2    0    0 -0.34177304496E+02 -0.48108136715E+02  0.86978486601E+02  0.13667460837E+03  0.87362523316E+02 0.  0.
          5    1    3    3  502    0  0.59324604629E+02  0.39768450291E+02  0.17008554736E+03  0.18453217002E+03  0.47000000000E+01 0. -1.
         -5    1    4    4    0  503 -0.62916103009E+02 -0.35219589737E+02  0.49974812964E+02  0.87854581269E+02  0.47000000000E+01 0.  1.
          5    1    4    4  503    0  0.28738798514E+02 -0.12888546978E+02  0.37003673638E+02  0.48820027099E+02  0.47000000000E+01 0. -1.
         -5    1    3    3    0  502 -0.25147300133E+02  0.83396864248E+01  0.17832233135E+02  0.32280266607E+02  0.47000000000E+01 0.  1.
<mgrwt>
<rscale>  0 0.10745605E+03</rscale>
<asrwt>0</asrwt>
<pdfrwt beam="1">  1        1 0.48337176E-01 0.10814130E+03</pdfrwt>
<pdfrwt beam="2">  1       -1 0.60454446E-02 0.10814130E+03</pdfrwt>
<totfact> 0.10138016E+04</totfact>
</mgrwt>
</event>
<event>
 8    1  0.6836165E-004  0.1274643E+03  0.7546771E-02  0.1231654E+00
          2   -1    0    0  501    0  0.00000000000E+00  0.00000000000E+00  0.57420998955E+03  0.57420998955E+03  0.00000000000E+00 0. -1.
         -2   -1    0    0    0  501 -0.00000000000E+00 -0.00000000000E+00 -0.71481013132E+02  0.71481013132E+02  0.00000000000E+00 0.  1.
         23    2    1    2    0    0 -0.73214842779E+02  0.47606633319E+02  0.50256164548E+03  0.51822661713E+03  0.91453892513E+02 0.  0.
         23    2    1    2    0    0  0.73214842779E+02 -0.47606633319E+02  0.16733093881E+00  0.12746438555E+03  0.92845769131E+02 0.  0.
          5    1    4    4  502    0  0.18969686210E+02 -0.57762020031E+02 -0.25898093487E+02  0.66250292069E+02  0.47000000000E+01 0. -1.
         -5    1    3    3    0  503 -0.47488869355E+02 -0.12454927031E+02  0.11443412543E+03  0.12460969859E+03  0.47000000000E+01 0.  1.
          5    1    3    3  503    0 -0.25725973424E+02  0.60061560351E+02  0.38812752005E+03  0.39361691854E+03  0.47000000000E+01 0. -1.
         -5    1    4    4    0  502  0.54245156569E+02  0.10155386712E+02  0.26065424426E+02  0.61214093483E+02  0.47000000000E+01 0.  1.
<mgrwt>
<rscale>  0 0.12721096E+03</rscale>
<asrwt>0</asrwt>
<pdfrwt beam="1">  1        2 0.88339995E-01 0.12746428E+03</pdfrwt>
<pdfrwt beam="2">  1       -2 0.10997079E-01 0.12746428E+03</pdfrwt>
<totfact> 0.29455423E+03</totfact>
</mgrwt>
</event>
<event>
 8    1  0.6836165E-004  0.1041965E+03  0.7546771E-02  0.1272283E+00
         -4   -1    0    0    0  501 -0.00000000000E+00  0.00000000000E+00  0.27077700982E+03  0.27077700982E+03  0.00000000000E+00 0.  1.
          4   -1    0    0  501    0  0.00000000000E+00 -0.00000000000E+00 -0.41750675593E+02  0.41750675593E+02  0.00000000000E+00 0. -1.
         23    2    1    2    0    0  0.41876051462E+02  0.45349234956E+02  0.80117754838E+02  0.13143734236E+03  0.83945003006E+02 0.  0.
         23    2    1    2    0    0 -0.41876051462E+02 -0.45349234956E+02  0.14890857938E+03  0.18109034305E+03  0.82521454990E+02 0.  0.
          5    1    4    4  502    0 -0.35219369540E+02 -0.24544105385E+02  0.15590239979E+02  0.45912554738E+02  0.47000000000E+01 0. -1.
         -5    1    3    3    0  503 -0.12905701974E+02  0.32927580565E+02  0.63216763031E+02  0.72589474674E+02  0.47000000000E+01 0. -1.
          5    1    3    3  503    0  0.54781753436E+02  0.12421654390E+02  0.16900991808E+02  0.58847867688E+02  0.47000000000E+01 0.  1.
         -5    1    4    4    0  502 -0.66566819222E+01 -0.20805129571E+02  0.13331833940E+03  0.13517778831E+03  0.47000000000E+01 0.  1.
<mgrwt>
<rscale>  0 0.10390951E+03</rscale>
<asrwt>0</asrwt>
<pdfrwt beam="1">  1        4 0.64231810E-02 0.10419655E+03</pdfrwt>
<pdfrwt beam="2">  1       -4 0.41658000E-01 0.10419655E+03</pdfrwt>
<totfact> 0.13816309E+03</totfact>
</mgrwt>
</event>
<event>
 8    1  0.6836165E-004  0.1034924E+03  0.7546771E-02  0.1273749E+00
         -3   -1    0    0    0  501 -0.00000000000E+00  0.00000000000E+00  0.51572450547E+02  0.51572450547E+02  0.00000000000E+00 0.  1.
          3   -1    0    0  501    0  0.00000000000E+00 -0.00000000000E+00 -0.27961253852E+03  0.27961253852E+03  0.00000000000E+00 0. -1.
         23    2    1    2    0    0  0.36621231091E+02  0.30895252133E+02 -0.19894370353E+03  0.22368017173E+03  0.90324918389E+02 0.  0.
         23    2    1    2    0    0 -0.36621231091E+02 -0.30895252133E+02 -0.29096384447E+02  0.10750481734E+03  0.91733608843E+02 0.  0.
          5    1    4    4  502    0 -0.35741532924E+02  0.17633951088E+02  0.13922328959E+02  0.42477460498E+02  0.47000000000E+01 0. -1.
         -5    1    3    3    0  503  0.42337033575E+02  0.10077769145E+02 -0.29461903756E+02  0.52764378285E+02  0.47000000000E+01 0.  1.
          5    1    3    3  503    0 -0.57158024841E+01  0.20817482988E+02 -0.16948179977E+03  0.17091579345E+03  0.47000000000E+01 0. -1.
         -5    1    4    4    0  502 -0.87969816739E+00 -0.48529203221E+02 -0.43018713406E+02  0.65027356837E+02  0.47000000000E+01 0.  1.
<mgrwt>
<rscale>  0 0.10317939E+03</rscale>
<asrwt>0</asrwt>
<pdfrwt beam="1">  1        3 0.43017313E-01 0.10349244E+03</pdfrwt>
<pdfrwt beam="2">  1       -3 0.79342233E-02 0.10349244E+03</pdfrwt>
<totfact> 0.12792756E+03</totfact>
</mgrwt>
</event>
<event>
 8    1  0.6836165E-004  0.1067044E+03  0.7546771E-02  0.1267669E+00
         -2   -1    0    0    0  501 -0.00000000000E+00  0.00000000000E+00  0.16403311392E+03  0.16403311392E+03  0.00000000000E+00 0.  1.
          2   -1    0    0  501    0  0.00000000000E+00 -0.00000000000E+00 -0.18689869319E+03  0.18689869319E+03  0.00000000000E+00 0. -1.
         23    2    1    2    0    0 -0.48863374144E+01  0.47109240594E+02  0.12840478934E+03  0.16581410415E+03  0.93612875012E+02 0.  0.
         23    2    1    2    0    0  0.48863374144E+01 -0.47109240594E+02 -0.15127036861E+03  0.18511770295E+03  0.95617376483E+02 0.  0.
          5    1    4    4  502    0 -0.20079956732E+02 -0.51891861958E+02 -0.14905583240E+03  0.15917192331E+03  0.47000000000E+01 0. -1.
         -5    1    4    4    0  502  0.24966294146E+02  0.47826213645E+01 -0.22145362104E+01  0.25945779640E+02  0.47000000000E+01 0.  1.
          5    1    3    3  503    0  0.17665956765E+02 -0.16856010755E+02  0.56652520468E+01  0.25502866657E+02  0.47000000000E+01 0. -1.
         -5    1    3    3    0  503 -0.22552294179E+02  0.63965251348E+02  0.12273953729E+03  0.14031123749E+03  0.47000000000E+01 0.  1.
<mgrwt>
<rscale>  0 0.10625349E+03</rscale>
<asrwt>0</asrwt>
<pdfrwt beam="1">  1        2 0.28753645E-01 0.10670445E+03</pdfrwt>
<pdfrwt beam="2">  1       -2 0.25235864E-01 0.10670445E+03</pdfrwt>
<totfact> 0.24622902E+03</totfact>
</mgrwt>
</event>
<event>
 8    1  0.6836165E-004  0.9549953E+02  0.7546771E-02  0.1292127E+00
          1   -1    0    0  501    0  0.00000000000E+00  0.00000000000E+00  0.35541941694E+02  0.35541941694E+02  0.00000000000E+00 0. -1.
         -1   -1    0    0    0  501 -0.00000000000E+00 -0.00000000000E+00 -0.35848666224E+03  0.35848666224E+03  0.00000000000E+00 0.  1.
         23    2    1    2    0    0 -0.23230846932E+02  0.55025803957E+01 -0.26919916969E+03  0.28444418567E+03  0.88714999641E+02 0.  0.
         23    2    1    2    0    0  0.23230846932E+02 -0.55025803957E+01 -0.53745550850E+02  0.10958441825E+03  0.92467344764E+02 0.  0.
          5    1    3    3  502    0 -0.51963093566E+02  0.90056677902E+01 -0.22676089014E+03  0.23286016500E+03  0.47000000000E+01 0. -1.
         -5    1    4    4    0  503  0.40972169268E+02  0.11292867329E+02  0.75609022143E+01  0.43422399166E+02  0.47000000000E+01 0.  1.
          5    1    4    4  503    0 -0.17741322336E+02 -0.16795447725E+02 -0.61306453064E+02  0.66162019088E+02  0.47000000000E+01 0. -1.
         -5    1    3    3    0  502  0.28732246634E+02 -0.35030873945E+01 -0.42438279547E+02  0.51584020673E+02  0.47000000000E+01 0.  1.
<mgrwt>
<rscale>  0 0.94579209E+02</rscale>
<asrwt>0</asrwt>
<pdfrwt beam="1">  1        1 0.54679911E-02 0.95499531E+02</pdfrwt>
<pdfrwt beam="2">  1       -1 0.55151794E-01 0.95499531E+02</pdfrwt>
<totfact> 0.46747732E+03</totfact>
</mgrwt>
</event>
<event>
 8    1  0.6836165E-004  0.1030659E+03  0.7546771E-02  0.1279516E+00
          3   -1    0    0  501    0  0.00000000000E+00  0.00000000000E+00  0.70628236333E+03  0.70628236333E+03  0.00000000000E+00 0. -1.
         -3   -1    0    0    0  501 -0.00000000000E+00 -0.00000000000E+00 -0.39905211850E+02  0.39905211850E+02  0.00000000000E+00 0.  1.
         23    2    1    2    0    0 -0.23304986482E+02  0.22464227315E+02  0.36215753221E+02  0.10924356408E+03  0.97850966309E+02 0.  0.
         23    2    1    2    0    0  0.23304986482E+02 -0.22464227315E+02  0.63016139826E+03  0.63694401110E+03  0.86870717267E+02 0.  0.
          5    1    4    4  502    0 -0.22788344903E+02  0.17816379817E+02  0.27019736577E+03  0.27178196872E+03  0.47000000000E+01 0. -1.
         -5    1    4    4    0  502  0.46093331385E+02 -0.40280607132E+02  0.35996403249E+03  0.36516204238E+03  0.47000000000E+01 0.  1.
          5    1    3    3  503    0  0.36589495344E+02  0.19453373167E+02  0.67049290136E+01  0.42240631745E+02  0.47000000000E+01 0. -1.
         -5    1    3    3    0  503 -0.59894481827E+02  0.30108541475E+01  0.29510824207E+02  0.67002932334E+02  0.47000000000E+01 0.  1.
<mgrwt>
<rscale>  0 0.10037196E+03</rscale>
<asrwt>0</asrwt>
<pdfrwt beam="1">  1        3 0.10865882E+00 0.10306588E+03</pdfrwt>
<pdfrwt beam="2">  1       -3 0.61392639E-02 0.10306588E+03</pdfrwt>
<totfact> 0.27558120E+02</totfact>
</mgrwt>
</event>
<event>
 8    1  0.6836165E-004  0.1043714E+03  0.7546771E-02  0.1272467E+00
          2   -1    0    0  501    0  0.00000000000E+00  0.00000000000E+00  0.35033876718E+03  0.35033876718E+03  0.00000000000E+00 0. -1.
         -2   -1    0    0    0  501 -0.00000000000E+00 -0.00000000000E+00 -0.45992034053E+02  0.45992034053E+02  0.00000000000E+00 0.  1.
         23    2    1    2    0    0  0.46920788104E+02  0.84900025898E+01  0.35880745609E+02  0.10829022068E+03  0.90364282150E+02 0.  0.
         23    2    1    2    0    0 -0.46920788104E+02 -0.84900025898E+01  0.26846598752E+03  0.28804058056E+03  0.92842603868E+02 0.  0.
          5    1    3    3  502    0  0.43484960513E+02  0.46276382407E+02  0.18617460809E+02  0.66341127564E+02  0.47000000000E+01 0. -1.
         -5    1    3    3    0  502  0.34358275914E+01 -0.37786379817E+02  0.17263284799E+02  0.41949093113E+02  0.47000000000E+01 0.  1.
          5    1    4    4  503    0 -0.74771247943E+02 -0.74310848849E+00  0.18563154407E+03  0.20018104776E+03  0.47000000000E+01 0. -1.
         -5    1    4    4    0  503  0.27850459840E+02 -0.77468941013E+01  0.82834443454E+02  0.87859532800E+02  0.47000000000E+01 0.  1.
<mgrwt>
<rscale>  0 0.10381743E+03</rscale>
<asrwt>0</asrwt>
<pdfrwt beam="1">  1        2 0.53898270E-01 0.10437140E+03</pdfrwt>
<pdfrwt beam="2">  1       -2 0.70756978E-02 0.10437140E+03</pdfrwt>
<totfact> 0.98271662E+03</totfact>
</mgrwt>
</event>
<event>
 8    1  0.6836165E-004  0.1005236E+03  0.7546771E-02  0.1280090E+00
         -1   -1    0    0    0  501 -0.00000000000E+00  0.00000000000E+00  0.22418457945E+03  0.22418457945E+03  0.00000000000E+00 0.  1.
          1   -1    0    0  501    0  0.00000000000E+00 -0.00000000000E+00 -0.45350770429E+02  0.45350770429E+02  0.00000000000E+00 0. -1.
         23    2    1    2    0    0 -0.22094439438E+02 -0.29691839805E+02  0.10899834163E+03  0.14713441866E+03  0.91641306587E+02 0.  0.
         23    2    1    2    0    0  0.22094439438E+02  0.29691839805E+02  0.69835467398E+02  0.12240093122E+03  0.93462430162E+02 0.  0.
          5    1    3    3  502    0  0.11163804922E+02 -0.43254833627E+02  0.16597920965E+02  0.47887285920E+02  0.47000000000E+01 0. -1.
         -5    1    4    4    0  503 -0.14313056997E+02 -0.27783597211E+02  0.15487148973E+02  0.35195648281E+02  0.47000000000E+01 0.  1.
          5    1    4    4  503    0  0.36407496435E+02  0.57475437016E+02  0.54348318424E+02  0.87205282939E+02  0.47000000000E+01 0. -1.
         -5    1    3    3    0  502 -0.33258244360E+02  0.13562993822E+02  0.92400420661E+02  0.99247132743E+02  0.47000000000E+01 0.  1.
<mgrwt>
<rscale>  0 0.10009818E+03</rscale>
<asrwt>0</asrwt>
<pdfrwt beam="1">  1        1 0.69770418E-02 0.10052361E+03</pdfrwt>
<pdfrwt beam="2">  1       -1 0.34489935E-01 0.10052361E+03</pdfrwt>
<totfact> 0.77554559E+03</totfact>
</mgrwt>
</event>
<event>
 7    1  0.6836165E-004  0.1903217E+03  0.7546771E-02  0.1182907E+00
          1   -1    0    0  501    0  0.00000000000E+00  0.00000000000E+00  0.10443747709E+04  0.10443747709E+04  0.00000000000E+00 0. -1.
         -1   -1    0    0    0  501 -0.00000000000E+00 -0.00000000000E+00 -0.23228390793E+02  0.23228390793E+02  0.00000000000E+00 0.  1.
         23    2    1    2    0    0  0.33102839321E+02 -0.46820416700E+02  0.23405338652E+03  0.25782682253E+03  0.91682786200E+02 0.  0.
          5    1    1    2  502    0 -0.25845304481E+02 -0.65249889268E+02  0.19970634495E+03  0.21173153291E+03  0.47000000000E+01 0. -1.
         -5    1    1    2    0  502 -0.72575348403E+01  0.11207030597E+03  0.58738664867E+03  0.59804480629E+03  0.47000000000E+01 0.  1.
          5    1    3    3  503    0  0.54646454030E+02 -0.19810765528E+02  0.75041000886E+02  0.95036536042E+02  0.47000000000E+01 0. -1.
         -5    1    3    3    0  503 -0.21543614709E+02 -0.27009651172E+02  0.15901238563E+03  0.16279028649E+03  0.47000000000E+01 0.  1.
<mgrwt>
<rscale>  0 0.16523806E+03</rscale>
<asrwt>0</asrwt>
<pdfrwt beam="1">  1        1 0.16067300E+00 0.19032167E+03</pdfrwt>
<pdfrwt beam="2">  1       -1 0.35735994E-02 0.19032167E+03</pdfrwt>
<totfact> 0.42683073E+03</totfact>
</mgrwt>
</event>
<event>
 8    1  0.6836165E-004  0.9966802E+02  0.7546771E-02  0.1281515E+00
          2   -1    0    0  501    0  0.00000000000E+00  0.00000000000E+00  0.63479445182E+02  0.63479445182E+02  0.00000000000E+00 0. -1.
         -2   -1    0    0    0  501 -0.00000000000E+00 -0.00000000000E+00 -0.22089780725E+03  0.22089780725E+03  0.00000000000E+00 0.  1.
         23    2    1    2    0    0 -0.31774613637E+02 -0.21928796851E+02 -0.15612437664E+03  0.18470083540E+03  0.90824442828E+02 0.  0.
         23    2    1    2    0    0  0.31774613637E+02  0.21928796851E+02 -0.12939854347E+01  0.99676417033E+02  0.91886971389E+02 0.  0.
          5    1    4    4  502    0 -0.29942122857E+02  0.22503359721E+02 -0.14696698638E+01  0.37778060424E+02  0.47000000000E+01 0. -1.
         -5    1    3    3    0  503 -0.36351659868E+02 -0.42488608791E+02 -0.15291056001E+03  0.16288171909E+03  0.47000000000E+01 0.  1.
          5    1    3    3  503    0  0.45770462311E+01  0.20559811940E+02 -0.32138166276E+01  0.21819116310E+02  0.47000000000E+01 0. -1.
         -5    1    4    4    0  502  0.61716736493E+02 -0.57456286942E+00  0.17568442904E+00  0.61898356609E+02  0.47000000000E+01 0.  1.
<mgrwt>
<rscale>  0 0.99422432E+02</rscale>
<asrwt>0</asrwt>
<pdfrwt beam="1">  1        2 0.97660685E-02 0.99668018E+02</pdfrwt>
<pdfrwt beam="2">  1       -2 0.33984278E-01 0.99668018E+02</pdfrwt>
<totfact> 0.49770569E+03</totfact>
</mgrwt>
</event>
<event>
 8    1  0.6836165E-004  0.9978092E+02  0.7546771E-02  0.1282919E+00
          4   -1    0    0  501    0  0.00000000000E+00  0.00000000000E+00  0.21530398519E+03  0.21530398519E+03  0.00000000000E+00 0. -1.
         -4   -1    0    0    0  501 -0.00000000000E+00 -0.00000000000E+00 -0.61227180032E+02  0.61227180032E+02  0.00000000000E+00 0.  1.
         23    2    1    2    0    0 -0.29014098865E+02 -0.64820851592E+01  0.34251382790E+01  0.95832087353E+02  0.91039672853E+02 0.  0.
         23    2    1    2    0    0  0.29014098865E+02  0.64820851592E+01  0.15065166688E+03  0.18069907787E+03  0.95249129385E+02 0.  0.
          5    1    3    3  502    0  0.22253731707E+02 -0.12555856469E+02  0.28228302261E+02  0.38364112854E+02  0.47000000000E+01 0. -1.
         -5    1    4    4    0  503  0.36724601037E+01  0.48176210805E+02  0.56025859605E+02  0.74131108148E+02  0.47000000000E+01 0.  1.
          5    1    4    4  503    0  0.25341638761E+02 -0.41694125646E+02  0.94625807273E+02  0.10656796972E+03  0.47000000000E+01 0. -1.
         -5    1    3    3    0  502 -0.51267830571E+02  0.60737713094E+01 -0.24803163982E+02  0.57467974498E+02  0.47000000000E+01 0.  1.
<mgrwt>
<rscale>  0 0.98762932E+02</rscale>
<asrwt>0</asrwt>
<pdfrwt beam="1">  1        4 0.33123690E-01 0.99780920E+02</pdfrwt>
<pdfrwt beam="2">  1       -4 0.94195662E-02 0.99780920E+02</pdfrwt>
<totfact> 0.11354968E+03</totfact>
</mgrwt>
</event>
<event>
 7    1  0.6836165E-004  0.1683658E+03  0.7546771E-02  0.1190171E+00
          2   -1    0    0  501    0  0.00000000000E+00  0.00000000000E+00  0.73613098698E+02  0.73613098698E+02  0.00000000000E+00 0. -1.
         -2   -1    0    0    0  501 -0.00000000000E+00 -0.00000000000E+00 -0.36139508531E+03  0.36139508531E+03  0.00000000000E+00 0.  1.
         23    2    1    2    0    0  0.74546446989E+02 -0.59415645202E+02 -0.21235344921E+03  0.25051831106E+03  0.92617736596E+02 0.  0.
          5    1    1    2  502    0 -0.56913085540E+02 -0.38051597513E+02 -0.23361700650E+02  0.72490567912E+02  0.47000000000E+01 0. -1.
         -5    1    3    3    0  503  0.91321837805E+02 -0.31459727269E+02 -0.18008457333E+03  0.20440630140E+03  0.47000000000E+01 0.  1.
          5    1    3    3  503    0 -0.16775390816E+02 -0.27955917933E+02 -0.32268875876E+02  0.46112009659E+02  0.47000000000E+01 0. -1.
         -5    1    1    2    0  502 -0.17633361449E+02  0.97467242716E+02 -0.52066836750E+02  0.11199930503E+03  0.47000000000E+01 0.  1.
<mgrwt>
<rscale>  0 0.15870149E+03</rscale>
<asrwt>0</asrwt>
<pdfrwt beam="1">  1        2 0.11325092E-01 0.16836582E+03</pdfrwt>
<pdfrwt beam="2">  1       -2 0.55599242E-01 0.16836582E+03</pdfrwt>
<totfact> 0.16641327E+03</totfact>
</mgrwt>
</event>
<event>
 8    1  0.6836165E-004  0.1112685E+03  0.7546771E-02  0.1259092E+00
          2   -1    0    0  501    0  0.00000000000E+00  0.00000000000E+00  0.67707582318E+02  0.67707582318E+02  0.00000000000E+00 0. -1.
         -2   -1    0    0    0  501 -0.00000000000E+00 -0.00000000000E+00 -0.20470871523E+03  0.20470871523E+03  0.00000000000E+00 0.  1.
         23    2    1    2    0    0  0.59546568182E+02 -0.47643606968E+01 -0.11548822725E+03  0.15908722240E+03  0.91666355789E+02 0.  0.
         23    2    1    2    0    0 -0.59546568182E+02  0.47643606968E+01 -0.21512905663E+02  0.11332907515E+03  0.93873219014E+02 0.  0.
          5    1    4    4  502    0 -0.71411918840E+02 -0.19244712953E+02  0.63716475857E+01  0.74382182154E+02  0.47000000000E+01 0. -1.
         -5    1    3    3    0  503  0.47182150687E+02  0.30838023309E+02 -0.10567443596E+03  0.11985956550E+03  0.47000000000E+01 0.  1.
          5    1    3    3  503    0  0.12364417495E+02 -0.35602384006E+02 -0.98137912852E+01  0.39227656905E+02  0.47000000000E+01 0. -1.
         -5    1    4    4    0  502  0.11865350658E+02  0.24009073650E+02 -0.27884553249E+02  0.38946892991E+02  0.47000000000E+01 0.  1.
<mgrwt>
<rscale>  0 0.11080169E+03</rscale>
<asrwt>0</asrwt>
<pdfrwt beam="1">  1        2 0.10416551E-01 0.11126848E+03</pdfrwt>
<pdfrwt beam="2">  1       -2 0.31493648E-01 0.11126848E+03</pdfrwt>
<totfact> 0.53290790E+03</totfact>
</mgrwt>
</event>
<event>
 7    1  0.6836165E-004  0.1465546E+03  0.7546771E-02  0.1220950E+00
         -1   -1    0    0    0  501 -0.00000000000E+00  0.00000000000E+00  0.77165315318E+02  0.77165315318E+02  0.00000000000E+00 0.  1.
          1   -1    0    0  501    0  0.00000000000E+00 -0.00000000000E+00 -0.22743375697E+03  0.22743375697E+03  0.00000000000E+00 0. -1.
         23    2    1    2    0    0  0.30016983034E+02  0.38698785813E+02 -0.11271855438E+03  0.15331045117E+03  0.91651550139E+02 0.  0.
          5    1    3    3  502    0 -0.20033212148E+02 -0.13515417849E+01  0.30994212113E+01  0.20853121254E+02  0.47000000000E+01 0. -1.
         -5    1    1    2    0  503  0.10704044977E+02 -0.27797899847E+02  0.47491136531E+02  0.56256536187E+02  0.47000000000E+01 0.  1.
          5    1    1    2  503    0 -0.40721028011E+02 -0.10900885966E+02 -0.85041023800E+02  0.95032084930E+02  0.47000000000E+01 0. -1.
         -5    1    3    3    0  502  0.50050195183E+02  0.40050327598E+02 -0.11581797560E+03  0.13245732992E+03  0.47000000000E+01 0.  1.
<mgrwt>
<rscale>  0 0.13448401E+03</rscale>
<asrwt>0</asrwt>
<pdfrwt beam="1">  1        1 0.34989809E-01 0.14655461E+03</pdfrwt>
<pdfrwt beam="2">  1       -1 0.11871587E-01 0.14655461E+03</pdfrwt>
<totfact> 0.55671662E+03</totfact>
</mgrwt>
</event>
<event>
 8    1  0.6836165E-004  0.9292881E+02  0.7546771E-02  0.1297049E+00
          1   -1    0    0  501    0  0.00000000000E+00  0.00000000000E+00  0.29408539734E+02  0.29408539734E+02  0.00000000000E+00 0. -1.
         -1   -1    0    0    0  501 -0.00000000000E+00 -0.00000000000E+00 -0.29252698897E+03  0.29252698897E+03  0.00000000000E+00 0.  1.
         23    2    1    2    0    0 -0.85190742221E+01 -0.79167932825E+01 -0.15392754582E+03  0.17980392784E+03  0.92198225908E+02 0.  0.
         23    2    1    2    0    0  0.85190742221E+01  0.79167932825E+01 -0.10919090341E+03  0.14213160087E+03  0.90241278448E+02 0.  0.
          5    1    3    3  502    0 -0.50084692083E+02 -0.20897382181E+01 -0.91382739215E+02  0.10433474212E+03  0.47000000000E+01 0. -1.
         -5    1    4    4    0  503 -0.52544465258E+01 -0.40133994487E+02 -0.50819039198E+02  0.65138402396E+02  0.47000000000E+01 0.  1.
          5    1    4    4  503    0  0.13773520748E+02  0.48050787770E+02 -0.58371864214E+02  0.76993198471E+02  0.47000000000E+01 0. -1.
         -5    1    3    3    0  502  0.41565617861E+02 -0.58270550644E+01 -0.62544806610E+02  0.75469185717E+02  0.47000000000E+01 0.  1.
<mgrwt>
<rscale>  0 0.92439650E+02</rscale>
<asrwt>0</asrwt>
<pdfrwt beam="1">  1        1 0.45243908E-02 0.92928807E+02</pdfrwt>
<pdfrwt beam="2">  1       -1 0.45004151E-01 0.92928807E+02</pdfrwt>
<totfact> 0.87016689E+03</totfact>
</mgrwt>
</event>
<event>
 8    1  0.6836165E-004  0.9517790E+02  0.7546771E-02  0.1290918E+00
         -1   -1    0    0    0  501 -0.00000000000E+00  0.00000000000E+00  0.20494913691E+03  0.20494913691E+03  0.00000000000E+00 0.  1.
          1   -1    0    0  501    0  0.00000000000E+00 -0.00000000000E+00 -0.82024987155E+02  0.82024987155E+02  0.00000000000E+00 0. -1.
         23    2    1    2    0    0 -0.24634520407E+02 -0.75731588525E+01  0.15909410059E+03  0.18539084454E+03  0.91622159245E+02 0.  0.
         23    2    1    2    0    0  0.24634520407E+02  0.75731588525E+01 -0.36169950837E+02  0.10158327953E+03  0.91360193768E+02 0.  0.
          5    1    4    4  502    0  0.57819728932E+02  0.14232172291E+02 -0.15738231074E+02  0.61769391281E+02  0.47000000000E+01 0. -1.
         -5    1    3    3    0  503 -0.48960686407E+02  0.17922774992E+02  0.57522549361E+02  0.77777299785E+02  0.47000000000E+01 0.  1.
          5    1    3    3  503    0  0.24326166000E+02 -0.25495933844E+02  0.10157155123E+03  0.10761354475E+03  0.47000000000E+01 0. -1.
         -5    1    4    4    0  502 -0.33185208525E+02 -0.66590134387E+01 -0.20431719763E+02  0.39813888247E+02  0.47000000000E+01 0.  1.
<mgrwt>
<rscale>  0 0.95114798E+02</rscale>
<asrwt>0</asrwt>
<pdfrwt beam="1">  1        1 0.12619229E-01 0.95177899E+02</pdfrwt>
<pdfrwt beam="2">  1       -1 0.31530636E-01 0.95177899E+02</pdfrwt>
<totfact> 0.41170678E+03</totfact>
</mgrwt>
</event>
<event>
 8    1  0.6836165E-004  0.9585264E+02  0.7546771E-02  0.1289438E+00
         -1   -1    0    0    0  501 -0.00000000000E+00  0.00000000000E+00  0.16270274224E+02  0.16270274224E+02  0.00000000000E+00 0.  1.
          1   -1    0    0  501    0  0.00000000000E+00 -0.00000000000E+00 -0.71203947425E+03  0.71203947425E+03  0.00000000000E+00 0. -1.
         23    2    1    2    0    0  0.15438527821E+02  0.78960690133E+01 -0.18077587077E+03  0.20447212274E+03  0.93958700919E+02 0.  0.
         23    2    1    2    0    0 -0.15438527821E+02 -0.78960690133E+01 -0.51499332925E+03  0.52383762572E+03  0.94271060828E+02 0.  0.
          5    1    4    4  502    0 -0.25082360877E+02 -0.46584167997E+02 -0.35129699439E+03  0.35528985041E+03  0.47000000000E+01 0. -1.
         -5    1    4    4    0  502  0.96438330565E+01  0.38688098984E+02 -0.16369633485E+03  0.16854777531E+03  0.47000000000E+01 0.  1.
          5    1    3    3  503    0 -0.98297339436E+01  0.18001049403E+02 -0.17499665557E+03  0.17625714428E+03  0.47000000000E+01 0. -1.
         -5    1    3    3    0  503  0.25268261764E+02 -0.10104980390E+02 -0.57792152017E+01  0.28214978462E+02  0.47000000000E+01 0.  1.
<mgrwt>
<rscale>  0 0.95775752E+02</rscale>
<asrwt>0</asrwt>
<pdfrwt beam="1">  1        1 0.10954454E+00 0.95852642E+02</pdfrwt>
<pdfrwt beam="2">  1       -1 0.25031189E-02 0.95852642E+02</pdfrwt>
<totfact> 0.12591102E+04</totfact>
</mgrwt>
</event>
<event>
 8    1  0.6836165E-004  0.9163696E+02  0.7546771E-02  0.1299089E+00
          1   -1    0    0  501    0  0.00000000000E+00  0.00000000000E+00  0.95255749210E+02  0.95255749210E+02  0.00000000000E+00 0. -1.
         -1   -1    0    0    0  501 -0.00000000000E+00 -0.00000000000E+00 -0.88159116932E+02  0.88159116932E+02  0.00000000000E+00 0.  1.
         23    2    1    2    0    0 -0.28523193213E+01  0.55621222455E+01  0.84608261836E+01  0.92026725143E+02  0.91423517934E+02 0.  0.
         23    2    1    2    0    0  0.28523193213E+01 -0.55621222455E+01 -0.13641939061E+01  0.91388140999E+02  0.91163909311E+02 0.  0.
          5    1    4    4  502    0 -0.11496638078E+02  0.31630493678E+02  0.26017325223E+02  0.42797804023E+02  0.47000000000E+01 0. -1.
         -5    1    3    3    0  503 -0.37466175243E+02 -0.24446970331E+02  0.94485427576E+01  0.45964482004E+02  0.47000000000E+01 0.  1.
          5    1    3    3  503    0  0.34613855921E+02  0.30009092576E+02 -0.98771657394E+00  0.46062243139E+02  0.47000000000E+01 0. -1.
         -5    1    4    4    0  502  0.14348957399E+02 -0.37192615923E+02 -0.27381519129E+02  0.48590336976E+02  0.47000000000E+01 0.  1.
<mgrwt>
<rscale>  0 0.91572141E+02</rscale>
<asrwt>0</asrwt>
<pdfrwt beam="1">  1        1 0.14654731E-01 0.91636961E+02</pdfrwt>
<pdfrwt beam="2">  1       -1 0.13562941E-01 0.91636961E+02</pdfrwt>
<totfact> 0.13042805E+04</totfact>
</mgrwt>
</event>
<event>
 8    1  0.6836165E-004  0.1164958E+03  0.7546771E-02  0.1252139E+00
          2   -1    0    0  501    0  0.00000000000E+00  0.00000000000E+00  0.30769395377E+03  0.30769395377E+03  0.00000000000E+00 0. -1.
         -2   -1    0    0    0  501 -0.00000000000E+00 -0.00000000000E+00 -0.43353429451E+02  0.43353429451E+02  0.00000000000E+00 0.  1.
         23    2    1    2    0    0  0.47225281019E+02 -0.35898797784E+02  0.99495284032E+02  0.15320111444E+03  0.10026125409E+03 0.  0.
         23    2    1    2    0    0 -0.47225281019E+02  0.35898797784E+02  0.16484524029E+03  0.19784626878E+03  0.91925197716E+02 0.  0.
          5    1    3    3  502    0 -0.24858082018E+01 -0.27927769310E+02  0.98612162810E+02  0.10262839858E+03  0.47000000000E+01 0. -1.
         -5    1    4    4    0  503 -0.55618113403E+02 -0.12099666887E+02  0.11256513650E+03  0.12622510223E+03  0.47000000000E+01 0.  1.
          5    1    4    4  503    0  0.83928323840E+01  0.47998464671E+02  0.52280103787E+02  0.71621166552E+02  0.47000000000E+01 0. -1.
         -5    1    3    3    0  502  0.49711089221E+02 -0.79710284735E+01  0.88312122213E+00  0.50572715861E+02  0.47000000000E+01 0.  1.
<mgrwt>
<rscale>  0 0.11468082E+03</rscale>
<asrwt>0</asrwt>
<pdfrwt beam="1">  1        2 0.47337530E-01 0.11649579E+03</pdfrwt>
<pdfrwt beam="2">  1       -2 0.66697586E-02 0.11649579E+03</pdfrwt>
<totfact> 0.12436883E+04</totfact>
</mgrwt>
</event>
<event>
 8    1  0.6836165E-004  0.1130612E+03  0.7546771E-02  0.1260241E+00
          2   -1    0    0  501    0  0.00000000000E+00  0.00000000000E+00  0.24121746285E+03  0.24121746285E+03  0.00000000000E+00 0. -1.
         -2   -1    0    0    0  501 -0.00000000000E+00 -0.00000000000E+00 -0.48247190009E+02  0.48247190009E+02  0.00000000000E+00 0.  1.
         23    2    1    2    0    0  0.48112347572E+01  0.33072647643E+02  0.11336665779E+03  0.16010879493E+03  0.10800869925E+03 0.  0.
         23    2    1    2    0    0 -0.48112347572E+01 -0.33072647643E+02  0.79603615056E+02  0.12935585793E+03  0.96328886892E+02 0.  0.
          5    1    4    4  502    0  0.33615226568E+02 -0.45564957692E+02  0.64518891579E+02  0.85970496086E+02  0.47000000000E+01 0. -1.
         -5    1    4    4    0  502 -0.38426461325E+02  0.12492310049E+02  0.15084723478E+02  0.43385361849E+02  0.47000000000E+01 0.  1.
          5    1    3    3  503    0  0.40902829082E+01 -0.33105868061E+02  0.77907593322E+02  0.84878807788E+02  0.47000000000E+01 0. -1.
         -5    1    3    3    0  503  0.72095184894E+00  0.66178515704E+02  0.35459064466E+02  0.75229987140E+02  0.47000000000E+01 0.  1.
<mgrwt>
<rscale>  0 0.11017789E+03</rscale>
<asrwt>0</asrwt>
<pdfrwt beam="1">  1        2 0.37110378E-01 0.11306117E+03</pdfrwt>
<pdfrwt beam="2">  1       -2 0.74226448E-02 0.11306117E+03</pdfrwt>
<totfact> 0.13627129E+04</totfact>
</mgrwt>
</event>
<event>
 7    1  0.1206733E-003  0.5286545E+03  0.7546771E-02  0.1067067E+00
          4   -1    0    0  501    0  0.00000000000E+00  0.00000000000E+00  0.45374642954E+03  0.45374642954E+03  0.00000000000E+00 0. -1.
         -4   -1    0    0    0  501 -0.00000000000E+00 -0.00000000000E+00 -0.51390573096E+03  0.51390573096E+03  0.00000000000E+00 0.  1.
         23    2    1    2    0    0  0.22710074484E+02  0.36039297047E+02  0.30970795009E+03  0.32245651974E+03  0.79022872371E+02 0.  0.
          5    1    3    3  502    0  0.23116358304E+02  0.60353197709E+02  0.23352540551E+03  0.24234908606E+03  0.47000000000E+01 0. -1.
         -5    1    3    3    0  502 -0.40628381973E+00 -0.24313900662E+02  0.76182544580E+02  0.80107433679E+02  0.47000000000E+01 0.  1.
          5    1    1    2  503    0 -0.21594324072E+03  0.13469337100E+03 -0.10453350957E+03  0.27517836403E+03  0.47000000000E+01 0. -1.
         -5    1    1    2    0  503  0.19323316624E+03 -0.17073266805E+03 -0.26533374193E+03  0.37001727673E+03  0.47000000000E+01 0.  1.
<mgrwt>
<rscale>  0 0.33936373E+03</rscale>
<asrwt>0</asrwt>
<pdfrwt beam="1">  1        4 0.69807144E-01 0.52865455E+03</pdfrwt>
<pdfrwt beam="2">  1       -4 0.79062420E-01 0.52865455E+03</pdfrwt>
<totfact> 0.52346928E+00</totfact>
</mgrwt>
</event>
<event>
 8    1  0.6836165E-004  0.9154665E+02  0.7546771E-02  0.1300759E+00
         -1   -1    0    0    0  501 -0.00000000000E+00  0.00000000000E+00  0.87278497175E+01  0.87278497175E+01  0.00000000000E+00 0.  1.
          1   -1    0    0  501    0  0.00000000000E+00 -0.00000000000E+00 -0.96287628537E+03  0.96287628537E+03  0.00000000000E+00 0. -1.
         23    2    1    2    0    0 -0.56640507384E+01  0.77961327734E+01 -0.39743820660E+03  0.40784545823E+03  0.91038061172E+02 0.  0.
         23    2    1    2    0    0  0.56640507384E+01 -0.77961327734E+01 -0.55671022906E+03  0.56375867686E+03  0.88344243931E+02 0.  0.
          5    1    3    3  502    0  0.37623128891E+02  0.11218169481E+02 -0.10565291143E+03  0.11280946258E+03  0.47000000000E+01 0. -1.
         -5    1    3    3    0  502 -0.43287179629E+02 -0.34220367080E+01 -0.29178529517E+03  0.29503599566E+03  0.47000000000E+01 0.  1.
          5    1    4    4  503    0  0.18470213305E+02 -0.42241618673E+02 -0.40257054774E+03  0.40522911919E+03  0.47000000000E+01 0. -1.
         -5    1    4    4    0  503 -0.12806162567E+02  0.34445485900E+02 -0.15413968131E+03  0.15852955767E+03  0.47000000000E+01 0.  1.
<mgrwt>
<rscale>  0 0.90869579E+02</rscale>
<asrwt>0</asrwt>
<pdfrwt beam="1">  1        1 0.14813485E+00 0.91546653E+02</pdfrwt>
<pdfrwt beam="2">  1       -1 0.13427457E-02 0.91546653E+02</pdfrwt>
<totfact> 0.19317759E+04</totfact>
</mgrwt>
</event>
<event>
 8    1  0.6836165E-004  0.1266979E+03  0.7546771E-02  0.1235248E+00
         -2   -1    0    0    0  501 -0.00000000000E+00  0.00000000000E+00  0.18924283865E+02  0.18924283865E+02  0.00000000000E+00 0.  1.
          2   -1    0    0  501    0  0.00000000000E+00 -0.00000000000E+00 -0.84919058531E+03  0.84919058531E+03  0.00000000000E+00 0. -1.
         23    2    1    2    0    0 -0.51514829225E+02 -0.22340689181E+02 -0.30091579604E+03  0.32381320106E+03  0.10560203053E+03 0.  0.
         23    2    1    2    0    0  0.51514829225E+02  0.22340689181E+02 -0.52935050541E+03  0.54430166812E+03  0.11357580867E+03 0.  0.
          5    1    4    4  502    0  0.75346457393E+01 -0.35329557152E+02 -0.33202092670E+03  0.33401337438E+03  0.47000000000E+01 0. -1.
         -5    1    4    4    0  502  0.43980183486E+02  0.57670246333E+02 -0.19732957871E+03  0.21028829374E+03  0.47000000000E+01 0.  1.
          5    1    3    3  503    0 -0.75221340761E+02 -0.38400672152E+02 -0.26168957549E+03  0.27502070040E+03  0.47000000000E+01 0. -1.
         -5    1    3    3    0  503  0.23706511536E+02  0.16059982971E+02 -0.39226220549E+02  0.48792500661E+02  0.47000000000E+01 0.  1.
<mgrwt>
<rscale>  0 0.12488541E+03</rscale>
<asrwt>0</asrwt>
<pdfrwt beam="1">  1        2 0.13064472E+00 0.12669786E+03</pdfrwt>
<pdfrwt beam="2">  1       -2 0.29114280E-02 0.12669786E+03</pdfrwt>
<totfact> 0.13830640E+04</totfact>
</mgrwt>
</event>
<event>
 8    1  0.8134245E-004  0.1173676E+03  0.7546771E-02  0.1249170E+00
          2   -1    0    0  501    0  0.00000000000E+00  0.00000000000E+00  0.43519434721E+03  0.43519434721E+03  0.00000000000E+00 0. -1.
         -2   -1    0    0    0  501 -0.00000000000E+00 -0.00000000000E+00 -0.85939170999E+02  0.85939170999E+02  0.00000000000E+00 0.  1.
         23    2    1    2    0    0 -0.26266957754E+02  0.68422387386E+02  0.38470711405E+03  0.40221228058E+03  0.91671036246E+02 0.  0.
         23    2    1    2    0    0  0.26266957754E+02 -0.68422387386E+02 -0.35451937835E+02  0.11892123763E+03  0.86682435925E+02 0.  0.
          5    1    3    3  502    0 -0.41957716564E+02  0.17621870968E+02  0.28924980850E+03  0.29284556004E+03  0.47000000000E+01 0. -1.
         -5    1    3    3    0  502  0.15690758810E+02  0.50800516417E+02  0.95457305545E+02  0.10936672054E+03  0.47000000000E+01 0.  1.
          5    1    4    4  503    0 -0.29855771428E+02 -0.12005861048E+02 -0.18527764007E+02  0.37428275758E+02  0.47000000000E+01 0. -1.
         -5    1    4    4    0  503  0.56122729182E+02 -0.56416526337E+02 -0.16924173828E+02  0.81492961872E+02  0.47000000000E+01 0.  1.
<mgrwt>
<rscale>  0 0.11639210E+03</rscale>
<asrwt>0</asrwt>
<pdfrwt beam="1">  1        2 0.66952975E-01 0.11736761E+03</pdfrwt>
<pdfrwt beam="2">  1       -2 0.13221411E-01 0.11736761E+03</pdfrwt>
<totfact> 0.29650286E+03</totfact>
</mgrwt>
</event>
<event>
 8    1  0.6836165E-004  0.9405124E+02  0.7546771E-02  0.1293567E+00
          1   -1    0    0  501    0  0.00000000000E+00  0.00000000000E+00  0.48326579226E+02  0.48326579226E+02  0.00000000000E+00 0. -1.
         -1   -1    0    0    0  501 -0.00000000000E+00 -0.00000000000E+00 -0.40796687070E+03  0.40796687070E+03  0.00000000000E+00 0.  1.
         23    2    1    2    0    0 -0.15785597506E+02 -0.57506482654E+01 -0.34971034224E+03  0.36213665711E+03  0.92538532054E+02 0.  0.
         23    2    1    2    0    0  0.15785597506E+02  0.57506482654E+01 -0.99299492397E+01  0.94156792815E+02  0.92112120251E+02 0.  0.
          5    1    3    3  502    0  0.29487491249E+02  0.11545257220E+01 -0.45321339633E+02  0.54285899605E+02  0.47000000000E+01 0. -1.
         -5    1    3    3    0  502 -0.45273088755E+02 -0.69051739874E+01 -0.30438900260E+03  0.30785075751E+03  0.47000000000E+01 0.  1.
          5    1    4    4  503    0 -0.19989196189E+02  0.19448126335E+02  0.28174632558E+02  0.39921141041E+02  0.47000000000E+01 0. -1.
         -5    1    4    4    0  503  0.35774793695E+02 -0.13697478070E+02 -0.38104581797E+02  0.54235651774E+02  0.47000000000E+01 0.  1.
<mgrwt>
<rscale>  0 0.93946179E+02</rscale>
<asrwt>0</asrwt>
<pdfrwt beam="1">  1        1 0.74348583E-02 0.94051236E+02</pdfrwt>
<pdfrwt beam="2">  1       -1 0.62764134E-01 0.94051236E+02</pdfrwt>
<totfact> 0.24283472E+03</totfact>
</mgrwt>
</event>
<event>
 8    1  0.6836165E-004  0.9363426E+02  0.7546771E-02  0.1294654E+00
          1   -1    0    0  501    0  0.00000000000E+00  0.00000000000E+00  0.53985340206E+03  0.53985340206E+03  0.00000000000E+00 0. -1.
         -1   -1    0    0    0  501 -0.00000000000E+00 -0.00000000000E+00 -0.16563495119E+02  0.16563495119E+02  0.00000000000E+00 0.  1.
         23    2    1    2    0    0 -0.19553579203E+02  0.12349065938E+02  0.21568289634E+03  0.23487460228E+03  0.90067336660E+02 0.  0.
         23    2    1    2    0    0  0.19553579203E+02 -0.12349065938E+02  0.30760701059E+03  0.32154229489E+03  0.90733304519E+02 0.  0.
          5    1    3    3  502    0  0.32828637924E+02  0.21596272368E+02  0.89775038684E+02  0.98110988268E+02  0.47000000000E+01 0. -1.
         -5    1    3    3    0  502 -0.52382217127E+02 -0.92472064304E+01  0.12590785766E+03  0.13676361402E+03  0.47000000000E+01 0.  1.
          5    1    4    4  503    0  0.15144202183E+02 -0.46199868785E+02  0.24736300844E+03  0.25213949052E+03  0.47000000000E+01 0. -1.
         -5    1    4    4    0  503  0.44093770191E+01  0.33850802847E+02  0.60244002148E+02  0.69402804366E+02  0.47000000000E+01 0.  1.
<mgrwt>
<rscale>  0 0.93472543E+02</rscale>
<asrwt>0</asrwt>
<pdfrwt beam="1">  1        1 0.83054356E-01 0.93634259E+02</pdfrwt>
<pdfrwt beam="2">  1       -1 0.25482304E-02 0.93634259E+02</pdfrwt>
<totfact> 0.17833427E+04</totfact>
</mgrwt>
</event>
<event>
 8    1  0.6836165E-004  0.1447265E+03  0.7546771E-02  0.1207324E+00
          2   -1    0    0  501    0  0.00000000000E+00  0.00000000000E+00  0.93753389121E+03  0.93753389121E+03  0.00000000000E+00 0. -1.
         -2   -1    0    0    0  501 -0.00000000000E+00 -0.00000000000E+00 -0.11951973942E+03  0.11951973942E+03  0.00000000000E+00 0.  1.
         23    2    1    2    0    0  0.11171900005E+03 -0.15799521774E+01 -0.67999751694E+02  0.15929731310E+03  0.90928744136E+02 0.  0.
         23    2    1    2    0    0 -0.11171900005E+03  0.15799521774E+01  0.88601390349E+03  0.89775631753E+03  0.91989875892E+02 0.  0.
          5    1    4    4  502    0 -0.12077463675E+02 -0.33018092582E+02  0.32176578309E+03  0.32371494982E+03  0.47000000000E+01 0. -1.
         -5    1    4    4    0  502 -0.99641536379E+02  0.34598044759E+02  0.56424812039E+03  0.57404136771E+03  0.47000000000E+01 0.  1.
          5    1    3    3  503    0  0.14960389941E+02 -0.30612992861E+02  0.47457257274E+01  0.34721470472E+02  0.47000000000E+01 0. -1.
         -5    1    3    3    0  503  0.96758610113E+02  0.29033040684E+02 -0.72745477421E+02  0.12457584263E+03  0.47000000000E+01 0.  1.
<mgrwt>
<rscale>  0 0.14455820E+03</rscale>
<asrwt>0</asrwt>
<pdfrwt beam="1">  1        2 0.14423598E+00 0.14472653E+03</pdfrwt>
<pdfrwt beam="2">  1       -2 0.18387653E-01 0.14472653E+03</pdfrwt>
<totfact> 0.70571246E+02</totfact>
</mgrwt>
</event>
<event>
 8    1  0.6836165E-004  0.9439315E+02  0.7546771E-02  0.1294087E+00
          2   -1    0    0  501    0  0.00000000000E+00  0.00000000000E+00  0.10552065924E+04  0.10552065924E+04  0.00000000000E+00 0. -1.
         -2   -1    0    0    0  501 -0.00000000000E+00 -0.00000000000E+00 -0.82369178943E+01  0.82369178943E+01  0.00000000000E+00 0.  1.
         23    2    1    2    0    0  0.74813049553E+01 -0.93506437693E+01  0.54802049700E+03  0.55564399427E+03  0.90941622938E+02 0.  0.
         23    2    1    2    0    0 -0.74813049553E+01  0.93506437693E+01  0.49894917753E+03  0.50779951604E+03  0.93630455890E+02 0.  0.
          5    1    3    3  502    0  0.25102553802E+02  0.31203569672E+02  0.36845419445E+03  0.37065399550E+03  0.47000000000E+01 0. -1.
         -5    1    3    3    0  502 -0.17621248847E+02 -0.40554213441E+02  0.17956630254E+03  0.18498999878E+03  0.47000000000E+01 0.  1.
          5    1    4    4  503    0 -0.32120067750E+00  0.50170725697E+02  0.21647959173E+03  0.22226720074E+03  0.47000000000E+01 0. -1.
         -5    1    4    4    0  503 -0.71601042778E+01 -0.40820081928E+02  0.28246958579E+03  0.28553231530E+03  0.47000000000E+01 0.  1.
<mgrwt>
<rscale>  0 0.93719351E+02</rscale>
<asrwt>0</asrwt>
<pdfrwt beam="1">  1        2 0.16233937E+00 0.94393150E+02</pdfrwt>
<pdfrwt beam="2">  1       -2 0.12672190E-02 0.94393150E+02</pdfrwt>
<totfact> 0.33598401E+04</totfact>
</mgrwt>
</event>
<event>
 8    1  0.6836165E-004  0.9351524E+02  0.7546771E-02  0.1295266E+00
          1   -1    0    0  501    0  0.00000000000E+00  0.00000000000E+00  0.24892033055E+03  0.24892033055E+03  0.00000000000E+00 0. -1.
         -1   -1    0    0    0  501 -0.00000000000E+00 -0.00000000000E+00 -0.48823688456E+02  0.48823688456E+02  0.00000000000E+00 0.  1.
         23    2    1    2    0    0  0.16832213823E+02  0.97292618013E+00  0.17972508508E+03  0.20203560521E+03  0.90735933114E+02 0.  0.
         23    2    1    2    0    0 -0.16832213823E+02 -0.97292618013E+00  0.20371557009E+02  0.95708413790E+02  0.91982770820E+02 0.  0.
          5    1    4    4  502    0  0.34389522667E+02  0.51557661547E+01 -0.89111195511E+01  0.36203856778E+02  0.47000000000E+01 0. -1.
         -5    1    4    4    0  502 -0.51221736490E+02 -0.61286923348E+01  0.29282676560E+02  0.59504557013E+02  0.47000000000E+01 0.  1.
          5    1    3    3  503    0  0.33399739293E+01 -0.43829080319E+02  0.10239055644E+03  0.11152604967E+03  0.47000000000E+01 0.  1.
         -5    1    3    3    0  503  0.13492239894E+02  0.44802006499E+02  0.77334528644E+02  0.90509555541E+02  0.47000000000E+01 0. -1.
<mgrwt>
<rscale>  0 0.93207188E+02</rscale>
<asrwt>0</asrwt>
<pdfrwt beam="1">  1        1 0.38295435E-01 0.93515240E+02</pdfrwt>
<pdfrwt beam="2">  1       -1 0.75113368E-02 0.93515240E+02</pdfrwt>
<totfact> 0.96482507E+03</totfact>
</mgrwt>
</event>
<event>
 8    1  0.6836165E-004  0.9240855E+02  0.7546771E-02  0.1299532E+00
          1   -1    0    0  501    0  0.00000000000E+00  0.00000000000E+00  0.73138386447E+02  0.73138386447E+02  0.00000000000E+00 0. -1.
         -1   -1    0    0    0  501 -0.00000000000E+00 -0.00000000000E+00 -0.12735595109E+03  0.12735595109E+03  0.00000000000E+00 0.  1.
         23    2    1    2    0    0  0.10740215972E+02  0.60594180417E+01  0.85340537933E+01  0.88793368630E+02  0.87517789348E+02 0.  0.
         23    2    1    2    0    0 -0.10740215972E+02 -0.60594180417E+01 -0.62751618433E+02  0.11170096890E+03  0.91582050926E+02 0.  0.
          5    1    4    4  502    0  0.90257249243E+01 -0.29649272615E+02  0.97247290592E+01  0.32820777448E+02  0.47000000000E+01 0. -1.
         -5    1    3    3    0  503 -0.24376546154E+02  0.34613847211E+02  0.58498394333E+00  0.42600077786E+02  0.47000000000E+01 0.  1.
          5    1    3    3  503    0  0.35116762126E+02 -0.28554429170E+02  0.79490698500E+01  0.46193290843E+02  0.47000000000E+01 0. -1.
         -5    1    4    4    0  502 -0.19765940896E+02  0.23589854573E+02 -0.72476347492E+02  0.78880191456E+02  0.47000000000E+01 0.  1.
<mgrwt>
<rscale>  0 0.91385115E+02</rscale>
<asrwt>0</asrwt>
<pdfrwt beam="1">  1        1 0.11252060E-01 0.92408554E+02</pdfrwt>
<pdfrwt beam="2">  1       -1 0.19593223E-01 0.92408554E+02</pdfrwt>
<totfact> 0.10338458E+04</totfact>
</mgrwt>
</event>
<event>
 8    1  0.6836165E-004  0.1170195E+03  0.7546771E-02  0.1248484E+00
         -1   -1    0    0    0  501 -0.00000000000E+00  0.00000000000E+00  0.30225614593E+02  0.30225614593E+02  0.00000000000E+00 0.  1.
          1   -1    0    0  501    0  0.00000000000E+00 -0.00000000000E+00 -0.45148282049E+03  0.45148282049E+03  0.00000000000E+00 0. -1.
         23    2    1    2    0    0  0.62990125161E+02  0.34752198743E+02 -0.22720627704E+03  0.25557045420E+03  0.92293518470E+02 0.  0.
         23    2    1    2    0    0 -0.62990125161E+02 -0.34752198743E+02 -0.19405092887E+03  0.22613798088E+03  0.91143580242E+02 0.  0.
          5    1    4    4  502    0 -0.54030788149E+02  0.20278935682E+02 -0.76429513840E+02  0.95885983784E+02  0.47000000000E+01 0. -1.
         -5    1    3    3    0  503  0.57470551242E+02 -0.15425433032E+02 -0.79558415900E+02  0.99460744944E+02  0.47000000000E+01 0.  1.
          5    1    3    3  503    0  0.55195739193E+01  0.50177631775E+02 -0.14764786114E+03  0.15610970926E+03  0.47000000000E+01 0. -1.
         -5    1    4    4    0  502 -0.89593370119E+01 -0.55031134426E+02 -0.11762141502E+03  0.13025199710E+03  0.47000000000E+01 0.  1.
<mgrwt>
<rscale>  0 0.11679265E+03</rscale>
<asrwt>0</asrwt>
<pdfrwt beam="1">  1        1 0.69458895E-01 0.11701951E+03</pdfrwt>
<pdfrwt beam="2">  1       -1 0.46500946E-02 0.11701951E+03</pdfrwt>
<totfact> 0.95553514E+03</totfact>
</mgrwt>
</event>
<event>
 8    1  0.6836165E-004  0.1146553E+03  0.7546771E-02  0.1252551E+00
         -1   -1    0    0    0  501 -0.00000000000E+00  0.00000000000E+00  0.20174528623E+02  0.20174528623E+02  0.00000000000E+00 0.  1.
          1   -1    0    0  501    0  0.00000000000E+00 -0.00000000000E+00 -0.70033391131E+03  0.70033391131E+03  0.00000000000E+00 0. -1.
         23    2    1    2    0    0 -0.65510145983E+02  0.17533162574E+02 -0.23939378848E+03  0.26507442676E+03  0.91411567888E+02 0.  0.
         23    2    1    2    0    0  0.65510145983E+02 -0.17533162574E+02 -0.44076559421E+03  0.45543401317E+03  0.92449122762E+02 0.  0.
          5    1    4    4  502    0  0.40923629143E+02  0.78783369489E+01 -0.39590798580E+03  0.39812314029E+03  0.47000000000E+01 0. -1.
         -5    1    4    4    0  502  0.24586516840E+02 -0.25411499522E+02 -0.44857608413E+02  0.57310872885E+02  0.47000000000E+01 0.  1.
          5    1    3    3  503    0  0.21791895089E+02  0.13385494952E+02 -0.63125752776E+02  0.68271581425E+02  0.47000000000E+01 0. -1.
         -5    1    3    3    0  503 -0.87302041072E+02  0.41476676217E+01 -0.17626803571E+03  0.19680284534E+03  0.47000000000E+01 0.  1.
<mgrwt>
<rscale>  0 0.11444596E+03</rscale>
<asrwt>0</asrwt>
<pdfrwt beam="1">  1        1 0.10774367E+00 0.11465527E+03</pdfrwt>
<pdfrwt beam="2">  1       -1 0.31037740E-02 0.11465527E+03</pdfrwt>
<totfact> 0.95770623E+03</totfact>
</mgrwt>
</event>
<event>
 7    1  0.6836165E-004  0.1482553E+03  0.7546771E-02  0.1223791E+00
          2   -1    0    0  501    0  0.00000000000E+00  0.00000000000E+00  0.85031960704E+03  0.85031960704E+03  0.00000000000E+00 0. -1.
         -2   -1    0    0    0  501 -0.00000000000E+00 -0.00000000000E+00 -0.58991021875E+02  0.58991021875E+02  0.00000000000E+00 0.  1.
         23    2    1    2    0    0 -0.19497025386E+02  0.20740598971E+02 -0.93229805008E+01  0.95048659590E+02  0.90205450389E+02 0.  0.
          5    1    1    2  502    0  0.16439075376E+02 -0.83275055169E+02  0.49176604403E+03  0.49906002653E+03  0.47000000000E+01 0. -1.
         -5    1    3    3    0  503  0.20378604644E+02  0.27065534153E+02 -0.33399466580E+02  0.47806328389E+02  0.47000000000E+01 0.  1.
          5    1    3    3  503    0 -0.39875630030E+02 -0.63249351815E+01  0.24076486079E+02  0.47242331201E+02  0.47000000000E+01 0. -1.
         -5    1    1    2    0  502  0.30579500103E+01  0.62534456197E+02  0.30888552164E+03  0.31520194280E+03  0.47000000000E+01 0.  1.
<mgrwt>
<rscale>  0 0.13250104E+03</rscale>
<asrwt>0</asrwt>
<pdfrwt beam="1">  1        2 0.13081839E+00 0.14825527E+03</pdfrwt>
<pdfrwt beam="2">  1       -2 0.90755424E-02 0.14825527E+03</pdfrwt>
<totfact> 0.25061692E+03</totfact>
</mgrwt>
</event>
<event>
 8    1  0.6836165E-004  0.1232489E+03  0.7546771E-02  0.1238458E+00
          2   -1    0    0  501    0  0.00000000000E+00  0.00000000000E+00  0.20606361605E+03  0.20606361605E+03  0.00000000000E+00 0. -1.
         -2   -1    0    0    0  501 -0.00000000000E+00 -0.00000000000E+00 -0.83229269551E+02  0.83229269551E+02  0.00000000000E+00 0.  1.
         23    2    1    2    0    0 -0.25144628889E+02 -0.69785621385E+02  0.98349676775E+01  0.12208302125E+03  0.96463735017E+02 0.  0.
         23    2    1    2    0    0  0.25144628889E+02  0.69785621385E+02  0.11299937882E+03  0.16720986435E+03  0.98427606945E+02 0.  0.
          5    1    4    4  502    0 -0.12772830215E+02  0.81972453150E+02  0.73966170362E+02  0.11124618027E+03  0.47000000000E+01 0. -1.
         -5    1    3    3    0  503 -0.37433313786E+02 -0.88731910679E+02 -0.13919530865E+01  0.96429417126E+02  0.47000000000E+01 0.  1.
          5    1    3    3  503    0  0.12288684897E+02  0.18946289294E+02  0.11226920764E+02  0.25653604120E+02  0.47000000000E+01 0. -1.
         -5    1    4    4    0  502  0.37917459104E+02 -0.12186831764E+02  0.39033208458E+02  0.55963684080E+02  0.47000000000E+01 0.  1.
<mgrwt>
<rscale>  0 0.12285632E+03</rscale>
<asrwt>0</asrwt>
<pdfrwt beam="1">  1        2 0.31702095E-01 0.12324885E+03</pdfrwt>
<pdfrwt beam="2">  1       -2 0.12804503E-01 0.12324885E+03</pdfrwt>
<totfact> 0.69210472E+03</totfact>
</mgrwt>
</event>
<event>
 8    1  0.6836165E-004  0.1157297E+03  0.7546771E-02  0.1250892E+00
          1   -1    0    0  501    0  0.00000000000E+00  0.00000000000E+00  0.12945286759E+03  0.12945286759E+03  0.00000000000E+00 0. -1.
         -1   -1    0    0    0  501 -0.00000000000E+00 -0.00000000000E+00 -0.15264137841E+03  0.15264137841E+03  0.00000000000E+00 0.  1.
         23    2    1    2    0    0  0.56964246114E+02 -0.44641141947E+02  0.69381245578E+02  0.13493378181E+03  0.90308423452E+02 0.  0.
         23    2    1    2    0    0 -0.56964246114E+02  0.44641141947E+02 -0.92569756392E+02  0.14716046419E+03  0.88596193670E+02 0.  0.
          5    1    4    4  502    0 -0.83410508555E+01  0.61615538415E+02 -0.56127346743E+02  0.83895272548E+02  0.47000000000E+01 0. -1.
         -5    1    4    4    0  502 -0.48623195259E+02 -0.16974396468E+02 -0.36442409649E+02  0.63265191643E+02  0.47000000000E+01 0.  1.
          5    1    3    3  503    0  0.68070589334E+02 -0.33903147244E+01  0.60045072228E+02  0.90953834801E+02  0.47000000000E+01 0. -1.
         -5    1    3    3    0  503 -0.11106343220E+02 -0.41250827222E+02  0.93361733503E+01  0.43979947011E+02  0.47000000000E+01 0.  1.
<mgrwt>
<rscale>  0 0.11539550E+03</rscale>
<asrwt>0</asrwt>
<pdfrwt beam="1">  1        1 0.19915826E-01 0.11572972E+03</pdfrwt>
<pdfrwt beam="2">  1       -1 0.23483289E-01 0.11572972E+03</pdfrwt>
<totfact> 0.37789727E+03</totfact>
</mgrwt>
</event>
<event>
 8    1  0.6836165E-004  0.1129340E+03  0.7546771E-02  0.1260327E+00
          1   -1    0    0  501    0  0.00000000000E+00  0.00000000000E+00  0.12832418978E+03  0.12832418978E+03  0.00000000000E+00 0. -1.
         -1   -1    0    0    0  501 -0.00000000000E+00 -0.00000000000E+00 -0.90173321751E+02  0.90173321751E+02  0.00000000000E+00 0.  1.
         23    2    1    2    0    0  0.28049421504E+02 -0.46845627027E+02  0.22902128202E+02  0.11523279493E+03  0.98857507220E+02 0.  0.
         23    2    1    2    0    0 -0.28049421504E+02  0.46845627027E+02  0.15248739822E+02  0.10326471659E+03  0.86312193858E+02 0.  0.
          5    1    3    3  502    0  0.45971669131E+02  0.90122758322E+01 -0.95307363952E+01  0.48036865162E+02  0.47000000000E+01 0. -1.
         -5    1    3    3    0  502 -0.17922247627E+02 -0.55857902859E+02  0.32432864597E+02  0.67195929771E+02  0.47000000000E+01 0.  1.
          5    1    4    4  503    0 -0.55121055240E+02  0.49739141637E+02  0.13246779567E+02  0.75563748653E+02  0.47000000000E+01 0. -1.
         -5    1    4    4    0  503  0.27071633736E+02 -0.28935146103E+01  0.20019602550E+01  0.27700967940E+02  0.47000000000E+01 0.  1.
<mgrwt>
<rscale>  0 0.11013103E+03</rscale>
<asrwt>0</asrwt>
<pdfrwt beam="1">  1        1 0.19742183E-01 0.11293401E+03</pdfrwt>
<pdfrwt beam="2">  1       -1 0.13872819E-01 0.11293401E+03</pdfrwt>
<totfact> 0.87852412E+03</totfact>
</mgrwt>
</event>
<event>
 8    1  0.6836165E-004  0.1429114E+03  0.7546771E-02  0.1209933E+00
         -1   -1    0    0    0  501 -0.00000000000E+00  0.00000000000E+00  0.65869695863E+02  0.65869695863E+02  0.00000000000E+00 0.  1.
          1   -1    0    0  501    0  0.00000000000E+00 -0.00000000000E+00 -0.70351404513E+03  0.70351404513E+03  0.00000000000E+00 0. -1.
         23    2    1    2    0    0  0.91202842108E+02 -0.61245622113E+02 -0.60693725012E+03  0.62321061381E+03  0.89160859913E+02 0.  0.
         23    2    1    2    0    0 -0.91202842108E+02  0.61245622113E+02 -0.30707099144E+02  0.14617312718E+03  0.91403897818E+02 0.  0.
          5    1    4    4  502    0 -0.34199493365E+02 -0.21511808504E+02 -0.19002919013E+02  0.44895035166E+02  0.47000000000E+01 0. -1.
         -5    1    4    4    0  502 -0.57003348744E+02  0.82757430617E+02 -0.11704180130E+02  0.10127809202E+03  0.47000000000E+01 0.  1.
          5    1    3    3  503    0  0.59173235653E+02 -0.64465597938E+02 -0.55535436575E+03  0.56222579689E+03  0.47000000000E+01 0. -1.
         -5    1    3    3    0  503  0.32029606456E+02  0.32199758254E+01 -0.51582884378E+02  0.60984816920E+02  0.47000000000E+01 0.  1.
<mgrwt>
<rscale>  0 0.14255400E+03</rscale>
<asrwt>0</asrwt>
<pdfrwt beam="1">  1        1 0.10823293E+00 0.14291136E+03</pdfrwt>
<pdfrwt beam="2">  1       -1 0.10133799E-01 0.14291136E+03</pdfrwt>
<totfact> 0.16560318E+03</totfact>
</mgrwt>
</event>
<event>
 8    1  0.6836165E-004  0.1116944E+03  0.7546771E-02  0.1257549E+00
         -2   -1    0    0    0  501 -0.00000000000E+00  0.00000000000E+00  0.14437133405E+02  0.14437133405E+02  0.00000000000E+00 0.  1.
          2   -1    0    0  501    0  0.00000000000E+00 -0.00000000000E+00 -0.10454526057E+04  0.10454526057E+04  0.00000000000E+00 0. -1.
         23    2    1    2    0    0  0.12671829769E+02 -0.61676789733E+02 -0.73743585173E+03  0.74584668210E+03  0.92255276888E+02 0.  0.
         23    2    1    2    0    0 -0.12671829769E+02  0.61676789733E+02 -0.29357962055E+03  0.31404305699E+03  0.92029595144E+02 0.  0.
          5    1    3    3  502    0  0.49250406471E+02 -0.53452062618E+02 -0.53231190463E+03  0.53727160668E+03  0.47000000000E+01 0. -1.
         -5    1    4    4    0  503 -0.28960032340E+02 -0.66653053246E+01 -0.35520777883E+02  0.46550246290E+02  0.47000000000E+01 0.  1.
          5    1    4    4  503    0  0.16288202571E+02  0.68342095058E+02 -0.25805884266E+03  0.26749281070E+03  0.47000000000E+01 0. -1.
         -5    1    3    3    0  502 -0.36578576702E+02 -0.82247271155E+01 -0.20512394710E+03  0.20857507541E+03  0.47000000000E+01 0.  1.
<mgrwt>
<rscale>  0 0.11164778E+03</rscale>
<asrwt>0</asrwt>
<pdfrwt beam="1">  1        2 0.16083885E+00 0.11169439E+03</pdfrwt>
<pdfrwt beam="2">  1       -2 0.22210976E-02 0.11169439E+03</pdfrwt>
<totfact> 0.15425731E+04</totfact>
</mgrwt>
</event>
<event>
 8    1  0.6836165E-004  0.1054654E+03  0.7546771E-02  0.1269658E+00
         -2   -1    0    0    0  501 -0.00000000000E+00  0.00000000000E+00  0.32813816598E+02  0.32813816598E+02  0.00000000000E+00 0.  1.
          2   -1    0    0  501    0  0.00000000000E+00 -0.00000000000E+00 -0.34802511630E+03  0.34802511630E+03  0.00000000000E+00 0. -1.
         23    2    1    2    0    0 -0.16388515183E+02  0.46087331178E+02 -0.12291099464E+03  0.16195694854E+03  0.93436154950E+02 0.  0.
         23    2    1    2    0    0  0.16388515183E+02 -0.46087331178E+02 -0.19230030506E+03  0.21888198435E+03  0.92397457892E+02 0.  0.
          5    1    3    3  502    0  0.25534520372E+02  0.52490047105E+02 -0.92804657564E+02  0.10973609817E+03  0.47000000000E+01 0. -1.
         -5    1    4    4    0  503 -0.24718164100E+02 -0.33189381240E+02 -0.31158425517E+02  0.52014037954E+02  0.47000000000E+01 0.  1.
          5    1    4    4  503    0  0.41106679283E+02 -0.12897949938E+02 -0.16114187954E+03  0.16686794640E+03  0.47000000000E+01 0. -1.
         -5    1    3    3    0  502 -0.41923035555E+02 -0.64027159265E+01 -0.30106337078E+02  0.52220850373E+02  0.47000000000E+01 0.  1.
<mgrwt>
<rscale>  0 0.10523482E+03</rscale>
<asrwt>0</asrwt>
<pdfrwt beam="1">  1        2 0.53542323E-01 0.10546535E+03</pdfrwt>
<pdfrwt beam="2">  1       -2 0.50482797E-02 0.10546535E+03</pdfrwt>
<totfact> 0.16469979E+04</totfact>
</mgrwt>
</event>
<event>
 8    1  0.6836165E-004  0.1073265E+03  0.7546771E-02  0.1265626E+00
          2   -1    0    0  501    0  0.00000000000E+00  0.00000000000E+00  0.39490398346E+03  0.39490398346E+03  0.00000000000E+00 0. -1.
         -2   -1    0    0    0  501 -0.00000000000E+00 -0.00000000000E+00 -0.39554143446E+02  0.39554143446E+02  0.00000000000E+00 0.  1.
         23    2    1    2    0    0 -0.56481602671E+02 -0.87040024888E+01  0.28908542372E+03  0.30836563113E+03  0.90846294095E+02 0.  0.
         23    2    1    2    0    0  0.56481602671E+02  0.87040024888E+01  0.66264416293E+02  0.12609249578E+03  0.90787738854E+02 0.  0.
          5    1    4    4  502    0  0.70318924848E+02 -0.14458887913E+02  0.67534751201E+02  0.98675444014E+02  0.47000000000E+01 0. -1.
         -5    1    4    4    0  502 -0.13837322177E+02  0.23162890402E+02 -0.12703349089E+01  0.27417051767E+02  0.47000000000E+01 0.  1.
          5    1    3    3  503    0 -0.54214501498E+02 -0.32996529494E+02  0.10626216737E+03  0.12386170250E+03  0.47000000000E+01 0. -1.
         -5    1    3    3    0  503 -0.22671011732E+01  0.24292527005E+02  0.18282325635E+03  0.18450392863E+03  0.47000000000E+01 0.  1.
<mgrwt>
<rscale>  0 0.10731412E+03</rscale>
<asrwt>0</asrwt>
<pdfrwt beam="1">  1        2 0.60754456E-01 0.10732651E+03</pdfrwt>
<pdfrwt beam="2">  1       -2 0.60852531E-02 0.10732651E+03</pdfrwt>
<totfact> 0.10907890E+04</totfact>
</mgrwt>
</event>
<event>
 8    1  0.6836165E-004  0.9803467E+02  0.7546771E-02  0.1285730E+00
          3   -1    0    0  501    0  0.00000000000E+00  0.00000000000E+00  0.17363968518E+03  0.17363968518E+03  0.00000000000E+00 0. -1.
         -3   -1    0    0    0  501 -0.00000000000E+00 -0.00000000000E+00 -0.63447151888E+02  0.63447151888E+02  0.00000000000E+00 0.  1.
         23    2    1    2    0    0  0.28361082043E+02  0.15226992632E+02  0.10011386411E+03  0.13853544583E+03  0.90183544427E+02 0.  0.
         23    2    1    2    0    0 -0.28361082043E+02 -0.15226992632E+02  0.10078669179E+02  0.98551391234E+02  0.92599054328E+02 0.  0.
          5    1    3    3  502    0 -0.48342512410E+01  0.40251239823E+02  0.84574905617E+02  0.93907065509E+02  0.47000000000E+01 0. -1.
         -5    1    3    3    0  502  0.33195333284E+02 -0.25024247190E+02  0.15538958494E+02  0.44628380324E+02  0.47000000000E+01 0.  1.
          5    1    4    4  503    0 -0.55897467053E+02 -0.28223686802E+02  0.20452770732E+02  0.66041722798E+02  0.47000000000E+01 0. -1.
         -5    1    4    4    0  503  0.27536385010E+02  0.12996694169E+02 -0.10374101552E+02  0.32509668435E+02  0.47000000000E+01 0.  1.
<mgrwt>
<rscale>  0 0.97460067E+02</rscale>
<asrwt>0</asrwt>
<pdfrwt beam="1">  1        3 0.26713798E-01 0.98034673E+02</pdfrwt>
<pdfrwt beam="2">  1       -3 0.97611004E-02 0.98034673E+02</pdfrwt>
<totfact> 0.22018000E+03</totfact>
</mgrwt>
</event>
<event>
 8    1  0.6836165E-004  0.1062100E+03  0.7546771E-02  0.1271041E+00
         -2   -1    0    0    0  501 -0.00000000000E+00  0.00000000000E+00  0.69067110463E+02  0.69067110463E+02  0.00000000000E+00 0.  1.
          2   -1    0    0  501    0  0.00000000000E+00 -0.00000000000E+00 -0.15356140266E+03  0.15356140266E+03  0.00000000000E+00 0. -1.
         23    2    1    2    0    0 -0.40462649378E+02  0.31011406497E+01 -0.37463035596E+02  0.10647126383E+03  0.91026413295E+02 0.  0.
         23    2    1    2    0    0  0.40462649378E+02 -0.31011406497E+01 -0.47031256601E+02  0.11615724929E+03  0.98151537929E+02 0.  0.
          5    1    4    4  502    0  0.60259611219E+02 -0.27927940038E+02 -0.50921415660E+02  0.83822855785E+02  0.47000000000E+01 0. -1.
         -5    1    4    4    0  502 -0.19796961841E+02  0.24826799389E+02  0.38901590594E+01  0.32334393508E+02  0.47000000000E+01 0.  1.
          5    1    3    3  503    0  0.29166498659E+02  0.12065942117E+00 -0.14747276278E+02  0.33019257417E+02  0.47000000000E+01 0. -1.
         -5    1    3    3    0  503 -0.69629148037E+02  0.29804812285E+01 -0.22715759317E+02  0.73452006413E+02  0.47000000000E+01 0.  1.
<mgrwt>
<rscale>  0 0.10453392E+03</rscale>
<asrwt>0</asrwt>
<pdfrwt beam="1">  1        2 0.23624831E-01 0.10621002E+03</pdfrwt>
<pdfrwt beam="2">  1       -2 0.10625709E-01 0.10621002E+03</pdfrwt>
<totfact> 0.12654483E+04</totfact>
</mgrwt>
</event>
<event>
 8    1  0.6836165E-004  0.9373163E+02  0.7546771E-02  0.1295273E+00
         -3   -1    0    0    0  501 -0.00000000000E+00  0.00000000000E+00  0.15933237101E+02  0.15933237101E+02  0.00000000000E+00 0.  1.
          3   -1    0    0  501    0  0.00000000000E+00 -0.00000000000E+00 -0.57526919142E+03  0.57526919142E+03  0.00000000000E+00 0. -1.
         23    2    1    2    0    0  0.52179251972E+01  0.43051918841E+01 -0.20856900959E+03  0.22866274406E+03  0.93487204148E+02 0.  0.
         23    2    1    2    0    0 -0.52179251972E+01 -0.43051918841E+01 -0.35076694472E+03  0.36253968445E+03  0.91388248006E+02 0.  0.
          5    1    4    4  502    0  0.78736555217E+01 -0.45164017580E+02 -0.13971505390E+03  0.14711957457E+03  0.47000000000E+01 0. -1.
         -5    1    3    3    0  503  0.37673581301E+02  0.28517960652E+02 -0.14975769026E+03  0.15710515141E+03  0.47000000000E+01 0.  1.
          5    1    3    3  503    0 -0.32455656104E+02 -0.24212768768E+02 -0.58811319330E+02  0.71557592650E+02  0.47000000000E+01 0. -1.
         -5    1    4    4    0  502 -0.13091580719E+02  0.40858825696E+02 -0.21105189082E+03  0.21542010988E+03  0.47000000000E+01 0.  1.
<mgrwt>
<rscale>  0 0.93203851E+02</rscale>
<asrwt>0</asrwt>
<pdfrwt beam="1">  1        3 0.88502957E-01 0.93731632E+02</pdfrwt>
<pdfrwt beam="2">  1       -3 0.24512671E-02 0.93731632E+02</pdfrwt>
<totfact> 0.17859323E+03</totfact>
</mgrwt>
</event>
<event>
 8    1  0.6836165E-004  0.1700618E+03  0.7546771E-02  0.1178349E+00
          2   -1    0    0  501    0  0.00000000000E+00  0.00000000000E+00  0.45262471649E+03  0.45262471649E+03  0.00000000000E+00 0. -1.
         -2   -1    0    0    0  501 -0.00000000000E+00 -0.00000000000E+00 -0.63184713900E+02  0.63184713900E+02  0.00000000000E+00 0.  1.
         23    2    1    2    0    0  0.13524703188E+03  0.41087684780E+02  0.20352418328E+03  0.26384576010E+03  0.90623034977E+02 0.  0.
         23    2    1    2    0    0 -0.13524703188E+03 -0.41087684780E+02  0.18591581932E+03  0.25196367030E+03  0.94557082262E+02 0.  0.
          5    1    3    3  502    0  0.11829096410E+03  0.55186242865E+02  0.20287997364E+03  0.24128955073E+03  0.47000000000E+01 0. -1.
         -5    1    4    4    0  503 -0.11653955268E+03 -0.67727371427E+02  0.16447255012E+03  0.21270113757E+03  0.47000000000E+01 0.  1.
          5    1    4    4  503    0 -0.18707479195E+02  0.26639686647E+02  0.21443269193E+02  0.39262532727E+02  0.47000000000E+01 0. -1.
         -5    1    3    3    0  502  0.16956067784E+02 -0.14098558085E+02  0.64420963788E+00  0.22556209363E+02  0.47000000000E+01 0.  1.
<mgrwt>
<rscale>  0 0.16952028E+03</rscale>
<asrwt>0</asrwt>
<pdfrwt beam="1">  1        2 0.69634570E-01 0.17006175E+03</pdfrwt>
<pdfrwt beam="2">  1       -2 0.97207255E-02 0.17006175E+03</pdfrwt>
<totfact> 0.47130024E+03</totfact>
</mgrwt>
</event>
<event>
 8    1  0.6836165E-004  0.1125236E+03  0.7546771E-02  0.1258906E+00
         -1   -1    0    0    0  501 -0.00000000000E+00  0.00000000000E+00  0.35977624007E+03  0.35977624007E+03  0.00000000000E+00 0.  1.
          1   -1    0    0  501    0  0.00000000000E+00 -0.00000000000E+00 -0.39334178797E+02  0.39334178797E+02  0.00000000000E+00 0. -1.
         23    2    1    2    0    0 -0.80551696295E+01 -0.53892343429E+02  0.24268244852E+03  0.26750013121E+03  0.98449372459E+02 0.  0.
         23    2    1    2    0    0  0.80551696295E+01  0.53892343429E+02  0.77759612756E+02  0.13161028767E+03  0.91134186809E+02 0.  0.
          5    1    4    4  502    0  0.30324307379E+02  0.60331411971E+02  0.22215204431E+02  0.71239372515E+02  0.47000000000E+01 0. -1.
         -5    1    3    3    0  503 -0.43234100548E+02 -0.40181662775E+02  0.20713108557E+03  0.21542778392E+03  0.47000000000E+01 0.  1.
          5    1    3    3  503    0  0.35178930919E+02 -0.13710680654E+02  0.35551362947E+02  0.52072347287E+02  0.47000000000E+01 0. -1.
         -5    1    4    4    0  502 -0.22269137749E+02 -0.64390685427E+01  0.55544408325E+02  0.60370915150E+02  0.47000000000E+01 0.  1.
<mgrwt>
<rscale>  0 0.11090363E+03</rscale>
<asrwt>0</asrwt>
<pdfrwt beam="1">  1        1 0.60514124E-02 0.11252355E+03</pdfrwt>
<pdfrwt beam="2">  1       -1 0.55350188E-01 0.11252355E+03</pdfrwt>
<totfact> 0.40986935E+03</totfact>
</mgrwt>
</event>
<event>
 8    1  0.6836165E-004  0.1201038E+03  0.7546771E-02  0.1243546E+00
         -2   -1    0    0    0  501 -0.00000000000E+00  0.00000000000E+00  0.30776996043E+02  0.30776996043E+02  0.00000000000E+00 0.  1.
          2   -1    0    0  501    0  0.00000000000E+00 -0.00000000000E+00 -0.51660509486E+03  0.51660509486E+03  0.00000000000E+00 0. -1.
         23    2    1    2    0    0 -0.70544115240E+02 -0.33870736693E+02 -0.33253633661E+03  0.35356093520E+03  0.91111035179E+02 0.  0.
         23    2    1    2    0    0  0.70544115240E+02  0.33870736693E+02 -0.15329176220E+03  0.19382115571E+03  0.89132356864E+02 0.  0.
          5    1    3    3  502    0 -0.57933337919E+02  0.18789524818E+02 -0.12650836579E+03  0.14048407205E+03  0.47000000000E+01 0.  1.
         -5    1    4    4    0  503  0.27648473559E+02  0.45915863965E+02 -0.27777655127E+02  0.60550745479E+02  0.47000000000E+01 0.  1.
          5    1    4    4  503    0  0.42895641681E+02 -0.12045127272E+02 -0.12551410708E+03  0.13327041023E+03  0.47000000000E+01 0. -1.
         -5    1    3    3    0  502 -0.12610777320E+02 -0.52660261511E+02 -0.20602797082E+03  0.21307686315E+03  0.47000000000E+01 0. -1.
<mgrwt>
<rscale>  0 0.11972853E+03</rscale>
<asrwt>0</asrwt>
<pdfrwt beam="1">  1        2 0.79477702E-01 0.12010379E+03</pdfrwt>
<pdfrwt beam="2">  1       -2 0.47349228E-02 0.12010379E+03</pdfrwt>
<totfact> 0.12007743E+04</totfact>
</mgrwt>
</event>
<event>
 8    1  0.6836165E-004  0.1020717E+03  0.7546771E-02  0.1277526E+00
          2   -1    0    0  501    0  0.00000000000E+00  0.00000000000E+00  0.10142935969E+04  0.10142935969E+04  0.00000000000E+00 0. -1.
         -2   -1    0    0    0  501 -0.00000000000E+00 -0.00000000000E+00 -0.10027589048E+02  0.10027589048E+02  0.00000000000E+00 0.  1.
         23    2    1    2    0    0  0.20759006961E+02  0.30736054803E+02  0.53079515405E+03  0.53997288729E+03  0.91932486135E+02 0.  0.
         23    2    1    2    0    0 -0.20759006961E+02 -0.30736054803E+02  0.47347085375E+03  0.48434829861E+03  0.95094603317E+02 0.  0.
          5    1    3    3  502    0  0.15548185450E+02 -0.29703994658E+02  0.27317036110E+03  0.27526025785E+03  0.47000000000E+01 0. -1.
         -5    1    3    3    0  502  0.52108215113E+01  0.60440049461E+02  0.25762479296E+03  0.26471262944E+03  0.47000000000E+01 0.  1.
          5    1    4    4  503    0 -0.75075456686E+01 -0.55107761600E+02  0.42212097251E+03  0.42579506111E+03  0.47000000000E+01 0. -1.
         -5    1    4    4    0  503 -0.13251461293E+02  0.24371706797E+02  0.51349881239E+02  0.58553237501E+02  0.47000000000E+01 0.  1.
<mgrwt>
<rscale>  0 0.10132877E+03</rscale>
<asrwt>0</asrwt>
<pdfrwt beam="1">  1        2 0.15604509E+00 0.10207167E+03</pdfrwt>
<pdfrwt beam="2">  1       -2 0.15427068E-02 0.10207167E+03</pdfrwt>
<totfact> 0.26990137E+04</totfact>
</mgrwt>
</event>
<event>
 8    1  0.6836165E-004  0.1093644E+03  0.7546771E-02  0.1262638E+00
         -2   -1    0    0    0  501 -0.00000000000E+00  0.00000000000E+00  0.10371679149E+03  0.10371679149E+03  0.00000000000E+00 0.  1.
          2   -1    0    0  501    0  0.00000000000E+00 -0.00000000000E+00 -0.11417715711E+03  0.11417715711E+03  0.00000000000E+00 0. -1.
         23    2    1    2    0    0 -0.56106136476E+02 -0.22672516070E+02 -0.14501190183E+02  0.10845488862E+03  0.88827004984E+02 0.  0.
         23    2    1    2    0    0  0.56106136476E+02  0.22672516070E+02  0.40408245657E+01  0.10943905998E+03  0.91096860819E+02 0.  0.
          5    1    3    3  502    0 -0.12035980190E+02  0.23527186180E+02 -0.32308213911E+02  0.42003618830E+02  0.47000000000E+01 0. -1.
         -5    1    4    4    0  503  0.99684422241E+01  0.46328854071E+02 -0.20544742051E+02  0.51864332502E+02  0.47000000000E+01 0.  1.
          5    1    4    4  503    0  0.46137694252E+02 -0.23656338001E+02  0.24585566617E+02  0.57574727480E+02  0.47000000000E+01 0. -1.
         -5    1    3    3    0  502 -0.44070156286E+02 -0.46199702250E+02  0.17807023729E+02  0.66451269793E+02  0.47000000000E+01 0.  1.
<mgrwt>
<rscale>  0 0.10889052E+03</rscale>
<asrwt>0</asrwt>
<pdfrwt beam="1">  1        2 0.17565716E-01 0.10936443E+03</pdfrwt>
<pdfrwt beam="2">  1       -2 0.15956429E-01 0.10936443E+03</pdfrwt>
<totfact> 0.92227817E+03</totfact>
</mgrwt>
</event>
<event>
 8    1  0.6836165E-004  0.9975860E+02  0.7546771E-02  0.1280849E+00
         -1   -1    0    0    0  501 -0.00000000000E+00  0.00000000000E+00  0.67280779537E+03  0.67280779537E+03  0.00000000000E+00 0.  1.
          1   -1    0    0  501    0  0.00000000000E+00 -0.00000000000E+00 -0.29779005156E+02  0.29779005156E+02  0.00000000000E+00 0. -1.
         23    2    1    2    0    0 -0.12414272243E+01 -0.39674479779E+02  0.72122913784E+02  0.12303067863E+03  0.91428812219E+02 0.  0.
         23    2    1    2    0    0  0.12414272243E+01  0.39674479779E+02  0.57090587643E+03  0.57955612190E+03  0.91521435747E+02 0.  0.
          5    1    4    4  502    0  0.20477921994E+02 -0.20080632462E+02  0.90724334178E+02  0.95265796072E+02  0.47000000000E+01 0. -1.
         -5    1    4    4    0  502 -0.19236494770E+02  0.59755112240E+02  0.48018154226E+03  0.48429032583E+03  0.47000000000E+01 0.  1.
          5    1    3    3  503    0  0.24745879532E+01 -0.67289748889E+02  0.65397033600E+02  0.93983487351E+02  0.47000000000E+01 0. -1.
         -5    1    3    3    0  503 -0.37160151775E+01  0.27615269110E+02  0.67258801843E+01  0.29047191277E+02  0.47000000000E+01 0.  1.
<mgrwt>
<rscale>  0 0.99737353E+02</rscale>
<asrwt>0</asrwt>
<pdfrwt beam="1">  1        1 0.45813859E-02 0.99758602E+02</pdfrwt>
<pdfrwt beam="2">  1       -1 0.10350888E+00 0.99758602E+02</pdfrwt>
<totfact> 0.16832135E+03</totfact>
</mgrwt>
</event>
<event>
 8    1  0.6836165E-004  0.9555236E+02  0.7546771E-02  0.1290565E+00
         -1   -1    0    0    0  501 -0.00000000000E+00  0.00000000000E+00  0.25324647617E+03  0.25324647617E+03  0.00000000000E+00 0.  1.
          1   -1    0    0  501    0  0.00000000000E+00 -0.00000000000E+00 -0.39112991963E+02  0.39112991963E+02  0.00000000000E+00 0. -1.
         23    2    1    2    0    0  0.22933242708E+02  0.73588026668E+01  0.15009928037E+03  0.17733498024E+03  0.91311640284E+02 0.  0.
         23    2    1    2    0    0 -0.22933242708E+02 -0.73588026668E+01  0.64034203838E+02  0.11502448789E+03  0.92467118244E+02 0.  0.
          5    1    4    4  502    0 -0.40660666123E+02 -0.28411154545E+02  0.54442578039E+01  0.50121985348E+02  0.47000000000E+01 0. -1.
         -5    1    3    3    0  503  0.42585248147E+02 -0.28889160141E+02  0.97387321971E+02  0.11024730116E+03  0.47000000000E+01 0.  1.
          5    1    3    3  503    0 -0.19652005439E+02  0.36247962808E+02  0.52711958402E+02  0.67087679078E+02  0.47000000000E+01 0. -1.
         -5    1    4    4    0  502  0.17727423415E+02  0.21052351879E+02  0.58589946034E+02  0.64902502546E+02  0.47000000000E+01 0.  1.
<mgrwt>
<rscale>  0 0.95271696E+02</rscale>
<asrwt>0</asrwt>
<pdfrwt beam="1">  1        1 0.60173835E-02 0.95552360E+02</pdfrwt>
<pdfrwt beam="2">  1       -1 0.38960995E-01 0.95552360E+02</pdfrwt>
<totfact> 0.76403548E+03</totfact>
</mgrwt>
</event>
<event>
 8    1  0.6836165E-004  0.1001075E+03  0.7546771E-02  0.1280957E+00
          1   -1    0    0  501    0  0.00000000000E+00  0.00000000000E+00  0.57395140646E+03  0.57395140646E+03  0.00000000000E+00 0. -1.
         -1   -1    0    0    0  501 -0.00000000000E+00 -0.00000000000E+00 -0.17176841586E+02  0.17176841586E+02  0.00000000000E+00 0.  1.
         23    2    1    2    0    0 -0.32722315176E+02  0.19670888341E+02  0.26999536940E+03  0.28737863566E+03  0.90726440364E+02 0.  0.
         23    2    1    2    0    0  0.32722315176E+02 -0.19670888341E+02  0.28677919548E+03  0.30374961238E+03  0.92540943941E+02 0.  0.
          5    1    3    3  502    0 -0.50128839725E+02  0.44783440677E+02  0.19191650497E+03  0.20340229107E+03  0.47000000000E+01 0. -1.
         -5    1    4    4    0  503  0.42903108465E+02 -0.39064088085E+02  0.10060975343E+03  0.11623722372E+03  0.47000000000E+01 0.  1.
          5    1    4    4  503    0 -0.10180793289E+02  0.19393199744E+02  0.18616944205E+03  0.18751238866E+03  0.47000000000E+01 0. -1.
         -5    1    3    3    0  502  0.17406524549E+02 -0.25112552336E+02  0.78078864425E+02  0.83976344595E+02  0.47000000000E+01 0.  1.
<mgrwt>
<rscale>  0 0.99686159E+02</rscale>
<asrwt>0</asrwt>
<pdfrwt beam="1">  1        1 0.88300202E-01 0.10010754E+03</pdfrwt>
<pdfrwt beam="2">  1       -1 0.26425915E-02 0.10010754E+03</pdfrwt>
<totfact> 0.15708900E+04</totfact>
</mgrwt>
</event>
<event>
 8    1  0.6836165E-004  0.1880650E+03  0.7546771E-02  0.1160262E+00
         -2   -1    0    0    0  501 -0.00000000000E+00  0.00000000000E+00  0.13065270654E+03  0.13065270654E+03  0.00000000000E+00 0.  1.
          2   -1    0    0  501    0  0.00000000000E+00 -0.00000000000E+00 -0.32837902756E+03  0.32837902756E+03  0.00000000000E+00 0. -1.
         23    2    1    2    0    0  0.49086094593E+02 -0.15634791522E+03 -0.24056230300E+01  0.18788856077E+03  0.91881494166E+02 0.  0.
         23    2    1    2    0    0 -0.49086094593E+02  0.15634791522E+03 -0.19532069799E+03  0.27114317333E+03  0.92273127741E+02 0.  0.
          5    1    3    3  502    0 -0.24910564688E+02 -0.65740932118E+02 -0.63463535246E+01  0.70744417390E+02  0.47000000000E+01 0. -1.
         -5    1    4    4    0  503  0.12900432520E+01  0.12222290895E+03 -0.10016353276E+03  0.15809783989E+03  0.47000000000E+01 0.  1.
          5    1    4    4  503    0 -0.50376137845E+02  0.34125006274E+02 -0.95157165229E+02  0.11304533344E+03  0.47000000000E+01 0. -1.
         -5    1    3    3    0  502  0.73996659281E+02 -0.90606983107E+02  0.39407304946E+01  0.11714414338E+03  0.47000000000E+01 0.  1.
<mgrwt>
<rscale>  0 0.18801702E+03</rscale>
<asrwt>0</asrwt>
<pdfrwt beam="1">  1        2 0.50519850E-01 0.18806500E+03</pdfrwt>
<pdfrwt beam="2">  1       -2 0.20100417E-01 0.18806500E+03</pdfrwt>
<totfact> 0.20393439E+03</totfact>
</mgrwt>
</event>
<event>
 8    1  0.6836165E-004  0.1070172E+03  0.7546771E-02  0.1266790E+00
         -2   -1    0    0    0  501 -0.00000000000E+00  0.00000000000E+00  0.28405421476E+02  0.28405421476E+02  0.00000000000E+00 0.  1.
          2   -1    0    0  501    0  0.00000000000E+00 -0.00000000000E+00 -0.63796371020E+03  0.63796371020E+03  0.00000000000E+00 0. -1.
         23    2    1    2    0    0  0.54855925578E+02  0.11024343613E+02 -0.50777911157E+03  0.51868133962E+03  0.89777487148E+02 0.  0.
         23    2    1    2    0    0 -0.54855925578E+02 -0.11024343613E+02 -0.10177917716E+03  0.14768779206E+03  0.91224855703E+02 0.  0.
          5    1    4    4  502    0 -0.39484957319E+02 -0.50020842433E+02 -0.51576472700E+02  0.82118019146E+02  0.47000000000E+01 0. -1.
         -5    1    4    4    0  502 -0.15370968259E+02  0.38996498820E+02 -0.50202704457E+02  0.65569772916E+02  0.47000000000E+01 0.  1.
          5    1    3    3  503    0  0.52962702304E+02 -0.13634033338E+02 -0.47054576504E+03  0.47373657416E+03  0.47000000000E+01 0. -1.
         -5    1    3    3    0  503  0.18932232740E+01  0.24658376950E+02 -0.37233346526E+02  0.44944765454E+02  0.47000000000E+01 0.  1.
<mgrwt>
<rscale>  0 0.10670810E+03</rscale>
<asrwt>0</asrwt>
<pdfrwt beam="1">  1        2 0.98148264E-01 0.10701721E+03</pdfrwt>
<pdfrwt beam="2">  1       -2 0.43700648E-02 0.10701721E+03</pdfrwt>
<totfact> 0.10591951E+04</totfact>
</mgrwt>
</event>
<event>
 8    1  0.6836165E-004  0.1128542E+03  0.7546771E-02  0.1260565E+00
          1   -1    0    0  501    0  0.00000000000E+00  0.00000000000E+00  0.18642405798E+03  0.18642405798E+03  0.00000000000E+00 0. -1.
         -1   -1    0    0    0  501 -0.00000000000E+00 -0.00000000000E+00 -0.84896765989E+02  0.84896765989E+02  0.00000000000E+00 0.  1.
         23    2    1    2    0    0  0.64311921835E+02  0.28421752992E+02 -0.17988973509E+02  0.11427894587E+03  0.88273750160E+02 0.  0.
         23    2    1    2    0    0 -0.64311921835E+02 -0.28421752992E+02  0.11951626550E+03  0.15704187810E+03  0.73716988713E+02 0.  0.
          5    1    4    4  502    0 -0.40403574783E+02 -0.30958535564E+02  0.12213892101E+03  0.13240425146E+03  0.47000000000E+01 0. -1.
         -5    1    4    4    0  502 -0.23908347052E+02  0.25367825720E+01 -0.26226555082E+01  0.24637626641E+02  0.47000000000E+01 0.  1.
          5    1    3    3  503    0 -0.43815669934E+01  0.41522231332E+02 -0.40857945748E+00  0.42018457388E+02  0.47000000000E+01 0. -1.
         -5    1    3    3    0  503  0.68693488829E+02 -0.13100478340E+02 -0.17580394052E+02  0.72260488479E+02  0.47000000000E+01 0.  1.
<mgrwt>
<rscale>  0 0.11000252E+03</rscale>
<asrwt>0</asrwt>
<pdfrwt beam="1">  1        1 0.28680624E-01 0.11285422E+03</pdfrwt>
<pdfrwt beam="2">  1       -1 0.13061041E-01 0.11285422E+03</pdfrwt>
<totfact> 0.60429632E+03</totfact>
</mgrwt>
</event>
<event>
 8    1  0.6836165E-004  0.1001605E+03  0.7546771E-02  0.1280583E+00
          1   -1    0    0  501    0  0.00000000000E+00  0.00000000000E+00  0.80493216953E+02  0.80493216953E+02  0.00000000000E+00 0. -1.
         -1   -1    0    0    0  501 -0.00000000000E+00 -0.00000000000E+00 -0.12399986302E+03  0.12399986302E+03  0.00000000000E+00 0.  1.
         23    2    1    2    0    0  0.39686729712E+02 -0.70505951284E+01 -0.13240746243E+02  0.99859653825E+02  0.90398482809E+02 0.  0.
         23    2    1    2    0    0 -0.39686729712E+02  0.70505951284E+01 -0.30265899829E+02  0.10463342615E+03  0.91691775906E+02 0.  0.
          5    1    4    4  502    0  0.16653935553E+02 -0.26559163105E+02 -0.21446726899E+02  0.38272637862E+02  0.47000000000E+01 0. -1.
         -5    1    3    3    0  503  0.18572110156E+02  0.36121447655E+02 -0.27778114916E+02  0.49430718431E+02  0.47000000000E+01 0.  1.
          5    1    3    3  503    0  0.21114619556E+02 -0.43172042783E+02  0.14537368673E+02  0.50428935395E+02  0.47000000000E+01 0. -1.
         -5    1    4    4    0  502 -0.56340665266E+02  0.33609758234E+02 -0.88191729300E+01  0.66360788289E+02  0.47000000000E+01 0.  1.
<mgrwt>
<rscale>  0 0.99863555E+02</rscale>
<asrwt>0</asrwt>
<pdfrwt beam="1">  1        1 0.12383572E-01 0.10016052E+03</pdfrwt>
<pdfrwt beam="2">  1       -1 0.19076902E-01 0.10016052E+03</pdfrwt>
<totfact> 0.95936829E+03</totfact>
</mgrwt>
</event>
<event>
 8    1  0.6836165E-004  0.9617140E+02  0.7546771E-02  0.1289455E+00
         -1   -1    0    0    0  501 -0.00000000000E+00  0.00000000000E+00  0.39465206095E+02  0.39465206095E+02  0.00000000000E+00 0.  1.
          1   -1    0    0  501    0  0.00000000000E+00 -0.00000000000E+00 -0.23141094355E+03  0.23141094355E+03  0.00000000000E+00 0. -1.
         23    2    1    2    0    0 -0.56205106110E+01 -0.23223081890E+02 -0.10382097274E+03  0.14043492584E+03  0.91500122088E+02 0.  0.
         23    2    1    2    0    0  0.56205106110E+01  0.23223081890E+02 -0.88124764712E+02  0.13044122381E+03  0.93155982312E+02 0.  0.
          5    1    3    3  502    0  0.35672829818E+02  0.10594973702E+02 -0.62008895966E+02  0.72470666024E+02  0.47000000000E+01 0. -1.
         -5    1    4    4    0  503  0.12576249852E+02 -0.23801455974E+02  0.30644950187E+01  0.27498227153E+02  0.47000000000E+01 0.  1.
          5    1    4    4  503    0 -0.69557392409E+01  0.47024537864E+02 -0.91189259731E+02  0.10294299665E+03  0.47000000000E+01 0. -1.
         -5    1    3    3    0  502 -0.41293340429E+02 -0.33818055592E+02 -0.41812076778E+02  0.67964259816E+02  0.47000000000E+01 0.  1.
<mgrwt>
<rscale>  0 0.95768111E+02</rscale>
<asrwt>0</asrwt>
<pdfrwt beam="1">  1        1 0.35601684E-01 0.96171403E+02</pdfrwt>
<pdfrwt beam="2">  1       -1 0.60715700E-02 0.96171403E+02</pdfrwt>
<totfact> 0.14498450E+04</totfact>
</mgrwt>
</event>
<event>
 8    1  0.6836165E-004  0.1052398E+03  0.7546771E-02  0.1270105E+00
          1   -1    0    0  501    0  0.00000000000E+00  0.00000000000E+00  0.23332853772E+03  0.23332853772E+03  0.00000000000E+00 0. -1.
         -1   -1    0    0    0  501 -0.00000000000E+00 -0.00000000000E+00 -0.89684267566E+02  0.89684267566E+02  0.00000000000E+00 0.  1.
         23    2    1    2    0    0  0.48242696329E+01 -0.51310453788E+02 -0.39365594392E+02  0.11236134698E+03  0.91757212404E+02 0.  0.
         23    2    1    2    0    0 -0.48242696329E+01  0.51310453788E+02  0.18300986454E+03  0.21065145830E+03  0.90693936508E+02 0.  0.
          5    1    3    3  502    0 -0.29643673563E+02 -0.40370510066E+02 -0.53330071893E+02  0.73312427551E+02  0.47000000000E+01 0. -1.
         -5    1    3    3    0  502  0.34467943196E+02 -0.10939943722E+02  0.13964477501E+02  0.39048919430E+02  0.47000000000E+01 0.  1.
          5    1    4    4  503    0  0.31793534245E+02  0.42311145779E+01  0.11769210233E+03  0.12207478077E+03  0.47000000000E+01 0. -1.
         -5    1    4    4    0  503 -0.36617803878E+02  0.47079339210E+02  0.65317762215E+02  0.88576677529E+02  0.47000000000E+01 0.  1.
<mgrwt>
<rscale>  0 0.10500763E+03</rscale>
<asrwt>0</asrwt>
<pdfrwt beam="1">  1        1 0.35896698E-01 0.10523983E+03</pdfrwt>
<pdfrwt beam="2">  1       -1 0.13797580E-01 0.10523983E+03</pdfrwt>
<totfact> 0.41905767E+03</totfact>
</mgrwt>
</event>
<event>
 8    1  0.6836165E-004  0.1201936E+03  0.7546771E-02  0.1243098E+00
         -2   -1    0    0    0  501 -0.00000000000E+00  0.00000000000E+00  0.91951245340E+01  0.91951245340E+01  0.00000000000E+00 0.  1.
          2   -1    0    0  501    0  0.00000000000E+00 -0.00000000000E+00 -0.15688037185E+04  0.15688037185E+04  0.00000000000E+00 0. -1.
         23    2    1    2    0    0  0.15196908322E+02 -0.75707005989E+02 -0.83300027847E+03  0.84151657218E+03  0.91094349704E+02 0.  0.
         23    2    1    2    0    0 -0.15196908322E+02  0.75707005989E+02 -0.72660831552E+03  0.73648227087E+03  0.92108600863E+02 0.  0.
          5    1    4    4  502    0  0.97468320252E+01  0.86390395544E+02 -0.63128156010E+03  0.63725724735E+03  0.47000000000E+01 0. -1.
         -5    1    4    4    0  502 -0.24943740347E+02 -0.10683389555E+02 -0.95326755414E+02  0.99225023520E+02  0.47000000000E+01 0.  1.
          5    1    3    3  503    0  0.51814461435E+02 -0.28001606982E+02 -0.40619074770E+03  0.41046539674E+03  0.47000000000E+01 0. -1.
         -5    1    3    3    0  503 -0.36617553113E+02 -0.47705399008E+02 -0.42680953077E+03  0.43105117544E+03  0.47000000000E+01 0.  1.
<mgrwt>
<rscale>  0 0.11999922E+03</rscale>
<asrwt>0</asrwt>
<pdfrwt beam="1">  1        2 0.24135477E+00 0.12019356E+03</pdfrwt>
<pdfrwt beam="2">  1       -2 0.14146325E-02 0.12019356E+03</pdfrwt>
<totfact> 0.15519591E+04</totfact>
</mgrwt>
</event>
<event>
 8    1  0.6836165E-004  0.1199110E+03  0.7546771E-02  0.1243996E+00
          2   -1    0    0  501    0  0.00000000000E+00  0.00000000000E+00  0.45481649194E+03  0.45481649194E+03  0.00000000000E+00 0. -1.
         -2   -1    0    0    0  501 -0.00000000000E+00 -0.00000000000E+00 -0.34086015561E+02  0.34086015561E+02  0.00000000000E+00 0.  1.
         23    2    1    2    0    0 -0.53759791057E+02  0.53314564825E+02  0.13995594874E+03  0.18429953707E+03  0.92984374070E+02 0.  0.
         23    2    1    2    0    0  0.53759791057E+02 -0.53314564825E+02  0.28077452764E+03  0.30460297043E+03  0.90642574237E+02 0.  0.
          5    1    4    4  502    0  0.72950435899E+02 -0.36082837613E+02  0.14522681668E+03  0.16654325430E+03  0.47000000000E+01 0. -1.
         -5    1    3    3    0  503 -0.44196774395E+02 -0.14709869919E+02  0.33697737426E+02  0.57683296088E+02  0.47000000000E+01 0.  1.
          5    1    3    3  503    0 -0.95630166627E+01  0.68024434745E+02  0.10625821131E+03  0.12661624099E+03  0.47000000000E+01 0. -1.
         -5    1    4    4    0  502 -0.19190644841E+02 -0.17231727213E+02  0.13554771095E+03  0.13805971613E+03  0.47000000000E+01 0. -1.
<mgrwt>
<rscale>  0 0.11945677E+03</rscale>
<asrwt>0</asrwt>
<pdfrwt beam="1">  1        2 0.69971764E-01 0.11991102E+03</pdfrwt>
<pdfrwt beam="2">  1       -2 0.52440027E-02 0.11991102E+03</pdfrwt>
<totfact> 0.11836546E+04</totfact>
</mgrwt>
</event>
<event>
 8    1  0.6836165E-004  0.1674706E+03  0.7546771E-02  0.1180542E+00
          1   -1    0    0  501    0  0.00000000000E+00  0.00000000000E+00  0.33183209612E+02  0.33183209612E+02  0.00000000000E+00 0. -1.
         -1   -1    0    0    0  501 -0.00000000000E+00 -0.00000000000E+00 -0.84905724814E+03  0.84905724814E+03  0.00000000000E+00 0.  1.
         23    2    1    2    0    0 -0.90787884128E+02  0.10716666864E+03 -0.37590153321E+03  0.41147276163E+03  0.90998550084E+02 0.  0.
         23    2    1    2    0    0  0.90787884128E+02 -0.10716666864E+03 -0.43997250532E+03  0.47076769613E+03  0.91210106406E+02 0.  0.
          5    1    4    4  502    0  0.92195292326E+02 -0.83829127747E+02 -0.25071065654E+03  0.28000931750E+03  0.47000000000E+01 0. -1.
         -5    1    4    4    0  502 -0.14074081980E+01 -0.23337540890E+02 -0.18926184878E+03  0.19075837863E+03  0.47000000000E+01 0.  1.
          5    1    3    3  503    0 -0.17720942583E+02 -0.14476904336E+02 -0.33878898298E+02  0.41151941814E+02  0.47000000000E+01 0. -1.
         -5    1    3    3    0  503 -0.73066941545E+02  0.12164357297E+03 -0.34202263492E+03  0.37032081981E+03  0.47000000000E+01 0.  1.
<mgrwt>
<rscale>  0 0.16744186E+03</rscale>
<asrwt>0</asrwt>
<pdfrwt beam="1">  1        1 0.51051097E-02 0.16747065E+03</pdfrwt>
<pdfrwt beam="2">  1       -1 0.13062418E+00 0.16747065E+03</pdfrwt>
<totfact> 0.86180905E+02</totfact>
</mgrwt>
</event>
<event>
 8    1  0.6836165E-004  0.9519771E+02  0.7546771E-02  0.1290938E+00
          1   -1    0    0  501    0  0.00000000000E+00  0.00000000000E+00  0.45869218582E+03  0.45869218582E+03  0.00000000000E+00 0. -1.
         -1   -1    0    0    0  501 -0.00000000000E+00 -0.00000000000E+00 -0.19742525454E+02  0.19742525454E+02  0.00000000000E+00 0.  1.
         23    2    1    2    0    0 -0.19621344171E+02  0.14710371771E+02  0.20575373277E+03  0.22655588021E+03  0.91605546359E+02 0.  0.
         23    2    1    2    0    0  0.19621344171E+02 -0.14710371771E+02  0.23319592760E+03  0.25187883106E+03  0.91984850418E+02 0.  0.
          5    1    4    4  502    0 -0.29680460357E+02 -0.20659519621E+02  0.15419190328E+03  0.15844550645E+03  0.47000000000E+01 0. -1.
         -5    1    3    3    0  503 -0.21065159176E+02  0.52252876513E+02  0.11243595109E+03  0.12584926354E+03  0.47000000000E+01 0.  1.
          5    1    3    3  503    0  0.14438150044E+01 -0.37542504742E+02  0.93317781680E+02  0.10070661667E+03  0.47000000000E+01 0. -1.
         -5    1    4    4    0  502  0.49301804528E+02  0.59491478501E+01  0.79004024316E+02  0.93433324612E+02  0.47000000000E+01 0.  1.
<mgrwt>
<rscale>  0 0.95105969E+02</rscale>
<asrwt>0</asrwt>
<pdfrwt beam="1">  1        1 0.70568020E-01 0.95197715E+02</pdfrwt>
<pdfrwt beam="2">  1       -1 0.30373120E-02 0.95197715E+02</pdfrwt>
<totfact> 0.17106987E+04</totfact>
</mgrwt>
</event>
<event>
 8    1  0.6836165E-004  0.9526904E+02  0.7546771E-02  0.1293459E+00
          2   -1    0    0  501    0  0.00000000000E+00  0.00000000000E+00  0.41408952956E+03  0.41408952956E+03  0.00000000000E+00 0. -1.
         -2   -1    0    0    0  501 -0.00000000000E+00 -0.00000000000E+00 -0.22852179869E+02  0.22852179869E+02  0.00000000000E+00 0.  1.
         23    2    1    2    0    0 -0.46801830303E+01  0.27978022700E+02  0.26613318435E+03  0.28267129523E+03  0.90947872261E+02 0.  0.
         23    2    1    2    0    0  0.46801830303E+01 -0.27978022700E+02  0.12510416534E+03  0.15427041420E+03  0.85695009442E+02 0.  0.
          5    1    4    4  502    0 -0.70080858681E+01  0.27615037484E+02  0.66588060208E+02  0.72579358808E+02  0.47000000000E+01 0. -1.
         -5    1    3    3    0  503  0.38939618922E+02  0.30571679167E+02  0.11533285372E+03  0.12559728754E+03  0.47000000000E+01 0.  1.
          5    1    3    3  503    0 -0.43619801953E+02 -0.25936564662E+01  0.15080033063E+03  0.15707400770E+03  0.47000000000E+01 0. -1.
         -5    1    4    4    0  502  0.11688268898E+02 -0.55593060184E+02  0.58516105137E+02  0.81691055391E+02  0.47000000000E+01 0.  1.
<mgrwt>
<rscale>  0 0.93993379E+02</rscale>
<asrwt>0</asrwt>
<pdfrwt beam="1">  1        2 0.63706076E-01 0.95269037E+02</pdfrwt>
<pdfrwt beam="2">  1       -2 0.35157203E-02 0.95269037E+02</pdfrwt>
<totfact> 0.23172037E+04</totfact>
</mgrwt>
</event>
<event>
 8    1  0.6836165E-004  0.1156844E+03  0.7546771E-02  0.1251560E+00
          1   -1    0    0  501    0  0.00000000000E+00  0.00000000000E+00  0.50151742987E+02  0.50151742987E+02  0.00000000000E+00 0. -1.
         -1   -1    0    0    0  501 -0.00000000000E+00 -0.00000000000E+00 -0.29977415873E+03  0.29977415873E+03  0.00000000000E+00 0.  1.
         23    2    1    2    0    0 -0.22259803115E+02 -0.63519086149E+02 -0.62941010320E+02  0.13169832241E+03  0.94088810209E+02 0.  0.
         23    2    1    2    0    0  0.22259803115E+02  0.63519086149E+02 -0.18668140542E+03  0.21822757931E+03  0.90791828367E+02 0.  0.
          5    1    3    3  502    0  0.10938512548E+02 -0.33699250757E+02  0.17342722472E+02  0.39725943426E+02  0.47000000000E+01 0. -1.
         -5    1    4    4    0  503  0.20646155118E+02 -0.18153254661E+02 -0.27081718168E+02  0.38875620058E+02  0.47000000000E+01 0.  1.
          5    1    4    4  503    0  0.16136479967E+01  0.81672340810E+02 -0.15959968726E+03  0.17935195925E+03  0.47000000000E+01 0. -1.
         -5    1    3    3    0  502 -0.33198315663E+02 -0.29819835392E+02 -0.80283732792E+02  0.91972378988E+02  0.47000000000E+01 0.  1.
<mgrwt>
<rscale>  0 0.11501224E+03</rscale>
<asrwt>0</asrwt>
<pdfrwt beam="1">  1        1 0.77156527E-02 0.11568439E+03</pdfrwt>
<pdfrwt beam="2">  1       -1 0.46119101E-01 0.11568439E+03</pdfrwt>
<totfact> 0.41304321E+03</totfact>
</mgrwt>
</event>
<event>
 7    1  0.6836165E-004  0.1553192E+03  0.7546771E-02  0.1213842E+00
         -1   -1    0    0    0  501 -0.00000000000E+00  0.00000000000E+00  0.26116378869E+02  0.26116378869E+02  0.00000000000E+00 0.  1.
          1   -1    0    0  501    0  0.00000000000E+00 -0.00000000000E+00 -0.66093577291E+03  0.66093577291E+03  0.00000000000E+00 0. -1.
         23    2    1    2    0    0  0.10246769309E+02  0.45696690345E+02 -0.32539500757E+03  0.34083329924E+03  0.89956895937E+02 0.  0.
          5    1    3    3  502    0  0.16148935617E+02  0.67240842223E+02 -0.29373568274E+03  0.30180268438E+03  0.47000000000E+01 0. -1.
         -5    1    3    3    0  502 -0.59021663080E+01 -0.21544151878E+02 -0.31659324827E+02  0.39030614852E+02  0.47000000000E+01 0.  1.
          5    1    1    2  503    0  0.56980975532E+02  0.12692685084E+02 -0.73331734968E+02  0.93848650394E+02  0.47000000000E+01 0. -1.
         -5    1    1    2    0  503 -0.67227744842E+02 -0.58389375429E+02 -0.23609265150E+03  0.25237020215E+03  0.47000000000E+01 0.  1.
<mgrwt>
<rscale>  0 0.13961966E+03</rscale>
<asrwt>0</asrwt>
<pdfrwt beam="1">  1        1 0.10168243E+00 0.15531916E+03</pdfrwt>
<pdfrwt beam="2">  1       -1 0.40179043E-02 0.15531916E+03</pdfrwt>
<totfact> 0.72600361E+03</totfact>
</mgrwt>
</event>
<event>
 8    1  0.6836165E-004  0.9112528E+02  0.7546771E-02  0.1301405E+00
         -1   -1    0    0    0  501 -0.00000000000E+00  0.00000000000E+00  0.98909127735E+02  0.98909127735E+02  0.00000000000E+00 0.  1.
          1   -1    0    0  501    0  0.00000000000E+00 -0.00000000000E+00 -0.31635457510E+03  0.31635457510E+03  0.00000000000E+00 0. -1.
         23    2    1    2    0    0  0.18409411362E+02  0.39054264962E+01  0.70290768932E+02  0.11344265237E+03  0.87030364803E+02 0.  0.
         23    2    1    2    0    0 -0.18409411362E+02 -0.39054264962E+01 -0.28773621629E+03  0.30182105046E+03  0.89160852118E+02 0.  0.
          5    1    3    3  502    0 -0.34347047728E+02 -0.10346013050E+01  0.36875400866E+02  0.50622873057E+02  0.47000000000E+01 0. -1.
         -5    1    4    4    0  503  0.24116040355E+02 -0.30786306282E+02 -0.10220232178E+03  0.10952983445E+03  0.47000000000E+01 0. -1.
          5    1    4    4  503    0 -0.42525451717E+02  0.26880879785E+02 -0.18553389451E+03  0.19229121601E+03  0.47000000000E+01 0. -1.
         -5    1    3    3    0  502  0.52756459090E+02  0.49400278012E+01  0.33415368066E+02  0.62819779317E+02  0.47000000000E+01 0.  1.
<mgrwt>
<rscale>  0 0.90599884E+02</rscale>
<asrwt>0</asrwt>
<pdfrwt beam="1">  1        1 0.48669934E-01 0.91125278E+02</pdfrwt>
<pdfrwt beam="2">  1       -1 0.15216789E-01 0.91125278E+02</pdfrwt>
<totfact> 0.24618843E+03</totfact>
</mgrwt>
</event>
<event>
 8    1  0.6836165E-004  0.9632439E+02  0.7546771E-02  0.1289068E+00
          2   -1    0    0  501    0  0.00000000000E+00  0.00000000000E+00  0.26466144920E+03  0.26466144920E+03  0.00000000000E+00 0. -1.
         -2   -1    0    0    0  501 -0.00000000000E+00 -0.00000000000E+00 -0.71925407856E+02  0.71925407856E+02  0.00000000000E+00 0.  1.
         23    2    1    2    0    0  0.34615910332E+01 -0.22457570525E+02 -0.24649261147E+02  0.99428239429E+02  0.93605895298E+02 0.  0.
         23    2    1    2    0    0 -0.34615910332E+01  0.22457570525E+02  0.21738530250E+03  0.23715861763E+03  0.92040833814E+02 0.  0.
          5    1    3    3  502    0 -0.28255070094E+02 -0.42682906222E+02 -0.32362918411E+02  0.60742307807E+02  0.47000000000E+01 0. -1.
         -5    1    3    3    0  502  0.31716661127E+02  0.20225335697E+02  0.77136572641E+01  0.38685931623E+02  0.47000000000E+01 0.  1.
          5    1    4    4  503    0 -0.10543882252E+02  0.53475326302E+02  0.17850708327E+03  0.18670204271E+03  0.47000000000E+01 0. -1.
         -5    1    4    4    0  503  0.70822912184E+01 -0.31017755776E+02  0.38878219231E+02  0.50456574922E+02  0.47000000000E+01 0.  1.
<mgrwt>
<rscale>  0 0.95942080E+02</rscale>
<asrwt>0</asrwt>
<pdfrwt beam="1">  1        2 0.40717146E-01 0.96324393E+02</pdfrwt>
<pdfrwt beam="2">  1       -2 0.11065447E-01 0.96324393E+02</pdfrwt>
<totfact> 0.65698503E+03</totfact>
</mgrwt>
</event>
<event>
 8    1  0.6836165E-004  0.1295499E+03  0.7546771E-02  0.1228183E+00
         -2   -1    0    0    0  501 -0.00000000000E+00  0.00000000000E+00  0.28082669851E+02  0.28082669851E+02  0.00000000000E+00 0.  1.
          2   -1    0    0  501    0  0.00000000000E+00 -0.00000000000E+00 -0.94567791049E+03  0.94567791049E+03  0.00000000000E+00 0. -1.
         23    2    1    2    0    0  0.49559077645E+02 -0.77258815717E+02 -0.16294690926E+03  0.20807311749E+03  0.91201426527E+02 0.  0.
         23    2    1    2    0    0 -0.49559077645E+02  0.77258815717E+02 -0.75464833138E+03  0.76568746285E+03  0.91422972684E+02 0.  0.
          5    1    4    4  502    0 -0.69936139409E+02  0.27015749008E+02 -0.44198203768E+03  0.44832033851E+03  0.47000000000E+01 0. -1.
         -5    1    4    4    0  502  0.20377061764E+02  0.50243066709E+02 -0.31266629370E+03  0.31736712434E+03  0.47000000000E+01 0.  1.
          5    1    3    3  503    0  0.15034559092E+02  0.20350288998E+02 -0.31052051475E+02  0.40329792092E+02  0.47000000000E+01 0. -1.
         -5    1    3    3    0  503  0.34524518553E+02 -0.97609104715E+02 -0.13189485779E+03  0.16774332540E+03  0.47000000000E+01 0.  1.
<mgrwt>
<rscale>  0 0.12951086E+03</rscale>
<asrwt>0</asrwt>
<pdfrwt beam="1">  1        2 0.14548891E+00 0.12954994E+03</pdfrwt>
<pdfrwt beam="2">  1       -2 0.43204108E-02 0.12954994E+03</pdfrwt>
<totfact> 0.67209458E+03</totfact>
</mgrwt>
</event>
<event>
 8    1  0.6836165E-004  0.1332978E+03  0.7546771E-02  0.1223857E+00
         -2   -1    0    0    0  501 -0.00000000000E+00  0.00000000000E+00  0.15305665155E+02  0.15305665155E+02  0.00000000000E+00 0.  1.
          2   -1    0    0  501    0  0.00000000000E+00 -0.00000000000E+00 -0.11510265112E+04  0.11510265112E+04  0.00000000000E+00 0. -1.
         23    2    1    2    0    0  0.81394683708E+02  0.42435880664E+02 -0.63572139426E+03  0.64886936599E+03  0.91999263502E+02 0.  0.
         23    2    1    2    0    0 -0.81394683708E+02 -0.42435880664E+02 -0.49999945177E+03  0.51746281035E+03  0.96656142227E+02 0.  0.
          5    1    4    4  502    0 -0.17185264708E+02 -0.49485848638E+02 -0.35206716330E+03  0.35597410020E+03  0.47000000000E+01 0. -1.
         -5    1    3    3    0  503  0.27137142853E+02  0.10332462677E+02 -0.39209896059E+02  0.49017244477E+02  0.47000000000E+01 0.  1.
          5    1    3    3  503    0  0.54257540855E+02  0.32103417987E+02 -0.59651149821E+03  0.59985212151E+03  0.47000000000E+01 0. -1.
         -5    1    4    4    0  502 -0.64209419000E+02  0.70499679745E+01 -0.14793228846E+03  0.16148871015E+03  0.47000000000E+01 0.  1.
<mgrwt>
<rscale>  0 0.13245557E+03</rscale>
<asrwt>0</asrwt>
<pdfrwt beam="1">  1        2 0.17708102E+00 0.13329782E+03</pdfrwt>
<pdfrwt beam="2">  1       -2 0.23547175E-02 0.13329782E+03</pdfrwt>
<totfact> 0.12475878E+04</totfact>
</mgrwt>
</event>
<event>
 8    1  0.6836165E-004  0.1053326E+03  0.7546771E-02  0.1269488E+00
         -1   -1    0    0    0  501 -0.00000000000E+00  0.00000000000E+00  0.12767650534E+03  0.12767650534E+03  0.00000000000E+00 0.  1.
          1   -1    0    0  501    0  0.00000000000E+00 -0.00000000000E+00 -0.97994947405E+02  0.97994947405E+02  0.00000000000E+00 0. -1.
         23    2    1    2    0    0 -0.10109396276E+02  0.50473446278E+02  0.52876025421E+02  0.11785934428E+03  0.91897672977E+02 0.  0.
         23    2    1    2    0    0  0.10109396276E+02 -0.50473446278E+02 -0.23194467487E+02  0.10781210846E+03  0.91846059995E+02 0.  0.
          5    1    3    3  502    0 -0.41131855208E+02 -0.46154045987E+00  0.59507998212E+01  0.41827557315E+02  0.47000000000E+01 0. -1.
         -5    1    3    3    0  502  0.31022458932E+02  0.50934986737E+02  0.46925225600E+02  0.76031786969E+02  0.47000000000E+01 0.  1.
          5    1    4    4  503    0  0.37837522333E+02 -0.26520714980E+02  0.20351176991E+02  0.50707857619E+02  0.47000000000E+01 0.  1.
         -5    1    4    4    0  503 -0.27728126057E+02 -0.23952731297E+02 -0.43545644478E+02  0.57104250842E+02  0.47000000000E+01 0. -1.
<mgrwt>
<rscale>  0 0.10532131E+03</rscale>
<asrwt>0</asrwt>
<pdfrwt beam="1">  1        1 0.15076146E-01 0.10533257E+03</pdfrwt>
<pdfrwt beam="2">  1       -1 0.19642539E-01 0.10533257E+03</pdfrwt>
<totfact> 0.71350523E+03</totfact>
</mgrwt>
</event>
<event>
 8    1  0.6836165E-004  0.2461730E+03  0.7546771E-02  0.1115853E+00
          2   -1    0    0  501    0  0.00000000000E+00  0.00000000000E+00  0.48656840506E+03  0.48656840506E+03  0.00000000000E+00 0. -1.
         -2   -1    0    0    0  501 -0.00000000000E+00 -0.00000000000E+00 -0.12533234788E+03  0.12533234788E+03  0.00000000000E+00 0.  1.
         23    2    1    2    0    0 -0.98096793136E+02 -0.20556903237E+03  0.15200304121E+03  0.28932002323E+03  0.93378495428E+02 0.  0.
         23    2    1    2    0    0  0.98096793136E+02  0.20556903237E+03  0.20923301597E+03  0.32258072972E+03  0.91642044490E+02 0.  0.
          5    1    4    4  502    0  0.23143891270E+02  0.48260841854E+01  0.15807294671E+01  0.24156148231E+02  0.47000000000E+01 0. -1.
         -5    1    4    4    0  502  0.74952901865E+02  0.20074294819E+03  0.20765228650E+03  0.29842458149E+03  0.47000000000E+01 0.  1.
          5    1    3    3  503    0 -0.10547837659E+03 -0.16921557220E+03  0.15382989599E+03  0.25188355386E+03  0.47000000000E+01 0. -1.
         -5    1    3    3    0  503  0.73815834502E+01 -0.36353460171E+02 -0.18268547778E+01  0.37436469372E+02  0.47000000000E+01 0.  1.
<mgrwt>
<rscale>  0 0.24600949E+03</rscale>
<asrwt>0</asrwt>
<pdfrwt beam="1">  1        2 0.74856676E-01 0.24617301E+03</pdfrwt>
<pdfrwt beam="2">  1       -2 0.19281900E-01 0.24617301E+03</pdfrwt>
<totfact> 0.14350437E+03</totfact>
</mgrwt>
</event>
<event>
 8    1  0.6836165E-004  0.9397392E+02  0.7546771E-02  0.1295010E+00
         -1   -1    0    0    0  501 -0.00000000000E+00  0.00000000000E+00  0.30241236058E+03  0.30241236058E+03  0.00000000000E+00 0.  1.
          1   -1    0    0  501    0  0.00000000000E+00 -0.00000000000E+00 -0.56038375697E+02  0.56038375697E+02  0.00000000000E+00 0. -1.
         23    2    1    2    0    0  0.47047905988E+01 -0.20263062431E+02  0.24817118581E+03  0.26445963456E+03  0.88978840707E+02 0.  0.
         23    2    1    2    0    0 -0.47047905988E+01  0.20263062431E+02 -0.17972009295E+01  0.93991101711E+02  0.91642623904E+02 0.  0.
          5    1    4    4  502    0 -0.44644705462E+02  0.10832200542E+02 -0.18077483277E+02  0.49592052751E+02  0.47000000000E+01 0. -1.
         -5    1    3    3    0  503  0.32621168622E+02 -0.67854250624E+00  0.33330736034E+02  0.46878876125E+02  0.47000000000E+01 0.  1.
          5    1    3    3  503    0 -0.27916378023E+02 -0.19584519924E+02  0.21484044978E+03  0.21758075844E+03  0.47000000000E+01 0. -1.
         -5    1    4    4    0  502  0.39939914864E+02  0.94308618883E+01  0.16280282347E+02  0.44399048960E+02  0.47000000000E+01 0.  1.
<mgrwt>
<rscale>  0 0.93318136E+02</rscale>
<asrwt>0</asrwt>
<pdfrwt beam="1">  1        1 0.86212887E-02 0.93973918E+02</pdfrwt>
<pdfrwt beam="2">  1       -1 0.46524978E-01 0.93973918E+02</pdfrwt>
<totfact> 0.34604781E+03</totfact>
</mgrwt>
</event>
<event>
 8    1  0.6836165E-004  0.9880090E+02  0.7546771E-02  0.1283977E+00
          3   -1    0    0  501    0  0.00000000000E+00  0.00000000000E+00  0.33857940260E+02  0.33857940260E+02  0.00000000000E+00 0. -1.
         -3   -1    0    0    0  501 -0.00000000000E+00 -0.00000000000E+00 -0.29987924494E+03  0.29987924494E+03  0.00000000000E+00 0.  1.
         23    2    1    2    0    0  0.30908925638E+02 -0.65189764634E+01 -0.93840392985E+02  0.13626311902E+03  0.93614953455E+02 0.  0.
         23    2    1    2    0    0 -0.30908925638E+02  0.65189764634E+01 -0.17218091169E+03  0.19747406618E+03  0.91388630170E+02 0.  0.
          5    1    3    3  502    0 -0.24305980036E+02  0.13701335386E+02 -0.64387991007E+02  0.70330723321E+02  0.47000000000E+01 0. -1.
         -5    1    4    4    0  503  0.22390919927E+02 -0.15575342562E+02 -0.10597188526E+03  0.10952659520E+03  0.47000000000E+01 0.  1.
          5    1    4    4  503    0 -0.53299845565E+02  0.22094319025E+02 -0.66209026436E+02  0.87947470981E+02  0.47000000000E+01 0. -1.
         -5    1    3    3    0  502  0.55214905674E+02 -0.20220311849E+02 -0.29452401978E+02  0.65932395696E+02  0.47000000000E+01 0.  1.
<mgrwt>
<rscale>  0 0.98269925E+02</rscale>
<asrwt>0</asrwt>
<pdfrwt beam="1">  1        3 0.52089139E-02 0.98800902E+02</pdfrwt>
<pdfrwt beam="2">  1       -3 0.46135268E-01 0.98800902E+02</pdfrwt>
<totfact> 0.21632155E+03</totfact>
</mgrwt>
</event>
<event>
 8    1  0.6836165E-004  0.9572889E+02  0.7546771E-02  0.1291882E+00
          1   -1    0    0  501    0  0.00000000000E+00  0.00000000000E+00  0.43724124869E+03  0.43724124869E+03  0.00000000000E+00 0. -1.
         -1   -1    0    0    0  501 -0.00000000000E+00 -0.00000000000E+00 -0.20077472054E+02  0.20077472054E+02  0.00000000000E+00 0.  1.
         23    2    1    2    0    0 -0.10993398002E+02  0.12530010872E+02  0.20818309241E+03  0.22745583469E+03  0.90100503854E+02 0.  0.
         23    2    1    2    0    0  0.10993398002E+02 -0.12530010872E+02  0.20898068423E+03  0.22986288606E+03  0.94266452335E+02 0.  0.
          5    1    3    3  502    0 -0.44371213756E+02 -0.96468272497E+01  0.70557261317E+02  0.84037390551E+02  0.47000000000E+01 0. -1.
         -5    1    3    3    0  502  0.33377815754E+02  0.22176838122E+02  0.13762583109E+03  0.14341844413E+03  0.47000000000E+01 0.  1.
          5    1    4    4  503    0  0.15199113137E+02  0.16864876132E+02  0.19557694699E+03  0.19694636143E+03  0.47000000000E+01 0. -1.
         -5    1    4    4    0  503 -0.42057151348E+01 -0.29394887005E+02  0.13403737240E+02  0.32916524631E+02  0.47000000000E+01 0.  1.
<mgrwt>
<rscale>  0 0.94687148E+02</rscale>
<asrwt>0</asrwt>
<pdfrwt beam="1">  1        1 0.67267877E-01 0.95728888E+02</pdfrwt>
<pdfrwt beam="2">  1       -1 0.30888422E-02 0.95728888E+02</pdfrwt>
<totfact> 0.17747378E+04</totfact>
</mgrwt>
</event>
<event>
 8    1  0.6836165E-004  0.1552261E+03  0.7546771E-02  0.1195344E+00
         -1   -1    0    0    0  501 -0.00000000000E+00  0.00000000000E+00  0.11428102791E+03  0.11428102791E+03  0.00000000000E+00 0.  1.
          1   -1    0    0  501    0  0.00000000000E+00 -0.00000000000E+00 -0.80726986708E+03  0.80726986708E+03  0.00000000000E+00 0. -1.
         23    2    1    2    0    0 -0.64768872780E+01 -0.12546044770E+03  0.50171391098E+02  0.16313283370E+03  0.91174990761E+02 0.  0.
         23    2    1    2    0    0  0.64768872780E+01  0.12546044770E+03 -0.74316023027E+03  0.75841806130E+03  0.84430763641E+02 0.  0.
          5    1    3    3  502    0  0.10826765229E+01 -0.64862017976E+02 -0.21827868182E+02  0.68606117757E+02  0.47000000000E+01 0. -1.
         -5    1    4    4    0  503  0.36373122184E+02  0.40588779149E+02 -0.18112494328E+03  0.18920567668E+03  0.47000000000E+01 0.  1.
          5    1    4    4  503    0 -0.29896234906E+02  0.84871668546E+02 -0.56203528699E+03  0.56921238462E+03  0.47000000000E+01 0. -1.
         -5    1    3    3    0  502 -0.75595638009E+01 -0.60598429720E+02  0.71999259280E+02  0.94526715939E+02  0.47000000000E+01 0.  1.
<mgrwt>
<rscale>  0 0.15425126E+03</rscale>
<asrwt>0</asrwt>
<pdfrwt beam="1">  1        1 0.12419536E+00 0.15522613E+03</pdfrwt>
<pdfrwt beam="2">  1       -1 0.17581697E-01 0.15522613E+03</pdfrwt>
<totfact> 0.57283983E+02</totfact>
</mgrwt>
</event>
<event>
 8    1  0.6836165E-004  0.1125921E+03  0.7546771E-02  0.1258159E+00
          1   -1    0    0  501    0  0.00000000000E+00  0.00000000000E+00  0.11453570166E+04  0.11453570166E+04  0.00000000000E+00 0. -1.
         -1   -1    0    0    0  501 -0.00000000000E+00 -0.00000000000E+00 -0.12995049171E+02  0.12995049171E+02  0.00000000000E+00 0.  1.
         23    2    1    2    0    0  0.10322421101E+02 -0.55070285024E+02  0.82639966090E+03  0.83403440016E+03  0.97661110238E+02 0.  0.
         23    2    1    2    0    0 -0.10322421101E+02  0.55070285024E+02  0.30596230651E+03  0.32431766559E+03  0.91813542230E+02 0.  0.
          5    1    4    4  502    0  0.14000313389E+02  0.74045665837E+02  0.19694526424E+03  0.21092248934E+03  0.47000000000E+01 0. -1.
         -5    1    3    3    0  503  0.22630818028E+02 -0.74574283191E+02  0.75097560720E+03  0.75502313226E+03  0.47000000000E+01 0.  1.
          5    1    3    3  503    0 -0.12308396927E+02  0.19503998167E+02  0.75424053697E+02  0.79011267902E+02  0.47000000000E+01 0. -1.
         -5    1    4    4    0  502 -0.24322734490E+02 -0.18975380812E+02  0.10901704228E+03  0.11339517625E+03  0.47000000000E+01 0.  1.
<mgrwt>
<rscale>  0 0.11131226E+03</rscale>
<asrwt>0</asrwt>
<pdfrwt beam="1">  1        1 0.17620869E+00 0.11259210E+03</pdfrwt>
<pdfrwt beam="2">  1       -1 0.19992392E-02 0.11259210E+03</pdfrwt>
<totfact> 0.82499819E+03</totfact>
</mgrwt>
</event>
<event>
 8    1  0.6836165E-004  0.1031161E+03  0.7546771E-02  0.1278725E+00
          2   -1    0    0  501    0  0.00000000000E+00  0.00000000000E+00  0.16499033052E+03  0.16499033052E+03  0.00000000000E+00 0. -1.
         -2   -1    0    0    0  501 -0.00000000000E+00 -0.00000000000E+00 -0.65216431724E+03  0.65216431724E+03  0.00000000000E+00 0.  1.
         23    2    1    2    0    0 -0.21925777685E+02 -0.26481750795E+01 -0.63427256366E+03  0.64259989446E+03  0.10072331803E+03 0.  0.
         23    2    1    2    0    0  0.21925777685E+02  0.26481750795E+01  0.14709857694E+03  0.17455475329E+03  0.91343406998E+02 0.  0.
          5    1    3    3  502    0 -0.27162495634E+02 -0.48946599695E+02 -0.36067525834E+03  0.36502370166E+03  0.47000000000E+01 0.  1.
         -5    1    3    3    0  502  0.52367179488E+01  0.46298424615E+02 -0.27359730531E+03  0.27757619280E+03  0.47000000000E+01 0. -1.
          5    1    4    4  503    0  0.88091918193E+01  0.29637465274E+02  0.13988222866E+03  0.14333565189E+03  0.47000000000E+01 0. -1.
         -5    1    4    4    0  503  0.13116585866E+02 -0.26989290194E+02  0.72163482792E+01  0.31219101404E+02  0.47000000000E+01 0.  1.
<mgrwt>
<rscale>  0 0.10075080E+03</rscale>
<asrwt>0</asrwt>
<pdfrwt beam="1">  1        2 0.25383128E-01 0.10311614E+03</pdfrwt>
<pdfrwt beam="2">  1       -2 0.10033297E+00 0.10311614E+03</pdfrwt>
<totfact> 0.18189491E+02</totfact>
</mgrwt>
</event>
<event>
 8    1  0.6836165E-004  0.1019020E+03  0.7546771E-02  0.1277018E+00
         -4   -1    0    0    0  501 -0.00000000000E+00  0.00000000000E+00  0.41175815378E+02  0.41175815378E+02  0.00000000000E+00 0.  1.
          4   -1    0    0  501    0  0.00000000000E+00 -0.00000000000E+00 -0.27821373545E+03  0.27821373545E+03  0.00000000000E+00 0. -1.
         23    2    1    2    0    0 -0.26945055343E+02 -0.33369271298E+02 -0.67434384493E+02  0.12219420267E+03  0.92436370975E+02 0.  0.
         23    2    1    2    0    0  0.26945055343E+02  0.33369271298E+02 -0.16960353558E+03  0.19719534817E+03  0.91000559238E+02 0.  0.
          5    1    4    4  502    0 -0.31940847088E+02  0.10099839087E+02 -0.36741951961E+02  0.49942822269E+02  0.47000000000E+01 0. -1.
         -5    1    4    4    0  502  0.58885902431E+02  0.23269432212E+02 -0.13286158362E+03  0.14725252590E+03  0.47000000000E+01 0.  1.
          5    1    3    3  503    0 -0.58869945262E+02 -0.58205421358E+01 -0.36268610443E+02  0.69548912783E+02  0.47000000000E+01 0. -1.
         -5    1    3    3    0  503  0.31924889918E+02 -0.27548729163E+02 -0.31165774051E+02  0.52645289884E+02  0.47000000000E+01 0.  1.
<mgrwt>
<rscale>  0 0.10157532E+03</rscale>
<asrwt>0</asrwt>
<pdfrwt beam="1">  1        4 0.42802115E-01 0.10190205E+03</pdfrwt>
<pdfrwt beam="2">  1       -4 0.63347406E-02 0.10190205E+03</pdfrwt>
<totfact> 0.13323074E+03</totfact>
</mgrwt>
</event>
<event>
 8    1  0.6836165E-004  0.1160681E+03  0.7546771E-02  0.1250288E+00
          1   -1    0    0  501    0  0.00000000000E+00  0.00000000000E+00  0.39705481900E+03  0.39705481900E+03  0.00000000000E+00 0. -1.
         -1   -1    0    0    0  501 -0.00000000000E+00 -0.00000000000E+00 -0.39471801243E+02  0.39471801243E+02  0.00000000000E+00 0.  1.
         23    2    1    2    0    0 -0.66367481243E+02  0.27299448159E+02  0.93421394273E+02  0.14799038321E+03  0.89575075654E+02 0.  0.
         23    2    1    2    0    0  0.66367481243E+02 -0.27299448159E+02  0.26416162348E+03  0.28853623703E+03  0.91224417363E+02 0.  0.
          5    1    4    4  502    0 -0.67164595129E+01 -0.22786533044E+02  0.14298396547E+02  0.28122429844E+02  0.47000000000E+01 0.  1.
         -5    1    4    4    0  502  0.73083940756E+02 -0.45129151158E+01  0.24986322693E+03  0.26041380719E+03  0.47000000000E+01 0. -1.
          5    1    3    3  503    0  0.17543036876E+01  0.43676674768E+02  0.28772222718E+02  0.52541986072E+02  0.47000000000E+01 0. -1.
         -5    1    3    3    0  503 -0.68121784930E+02 -0.16377226609E+02  0.64649171555E+02  0.95448397138E+02  0.47000000000E+01 0.  1.
<mgrwt>
<rscale>  0 0.11574377E+03</rscale>
<asrwt>0</asrwt>
<pdfrwt beam="1">  1        1 0.61085354E-01 0.11606807E+03</pdfrwt>
<pdfrwt beam="2">  1       -1 0.60725851E-02 0.11606807E+03</pdfrwt>
<totfact> 0.75731775E+03</totfact>
</mgrwt>
</event>
<event>
 8    1  0.6836165E-004  0.1068894E+03  0.7546771E-02  0.1267272E+00
          1   -1    0    0  501    0  0.00000000000E+00  0.00000000000E+00  0.48663543393E+03  0.48663543393E+03  0.00000000000E+00 0. -1.
         -1   -1    0    0    0  501 -0.00000000000E+00 -0.00000000000E+00 -0.25372599341E+02  0.25372599341E+02  0.00000000000E+00 0.  1.
         23    2    1    2    0    0  0.42614572721E+02  0.39109728192E+02  0.15577203537E+03  0.18891869856E+03  0.89887568743E+02 0.  0.
         23    2    1    2    0    0 -0.42614572721E+02 -0.39109728192E+02  0.30549079922E+03  0.32308933471E+03  0.87843708649E+02 0.  0.
          5    1    3    3  502    0 -0.27388523498E+01 -0.26419150094E+02  0.42667148899E+02  0.50478197264E+02  0.47000000000E+01 0. -1.
         -5    1    4    4    0  503  0.19467925320E+02 -0.17525583191E+02  0.31266340284E+02  0.41058741057E+02  0.47000000000E+01 0.  1.
          5    1    4    4  503    0 -0.62082498041E+02 -0.21584145001E+02  0.27422445893E+03  0.28203059365E+03  0.47000000000E+01 0. -1.
         -5    1    3    3    0  502  0.45353425071E+02  0.65528878286E+02  0.11310488647E+03  0.13844050129E+03  0.47000000000E+01 0.  1.
<mgrwt>
<rscale>  0 0.10645858E+03</rscale>
<asrwt>0</asrwt>
<pdfrwt beam="1">  1        1 0.74866983E-01 0.10688942E+03</pdfrwt>
<pdfrwt beam="2">  1       -1 0.39034772E-02 0.10688942E+03</pdfrwt>
<totfact> 0.11138130E+04</totfact>
</mgrwt>
</event>
<event>
 8    1  0.6836165E-004  0.1759401E+03  0.7546771E-02  0.1172729E+00
         -2   -1    0    0    0  501 -0.00000000000E+00  0.00000000000E+00  0.10513186116E+03  0.10513186116E+03  0.00000000000E+00 0.  1.
          2   -1    0    0  501    0  0.00000000000E+00 -0.00000000000E+00 -0.28840707172E+03  0.28840707172E+03  0.00000000000E+00 0. -1.
         23    2    1    2    0    0  0.93455574327E+02  0.11788609814E+03 -0.86042810695E+02  0.19251889167E+03  0.83839619920E+02 0.  0.
         23    2    1    2    0    0 -0.93455574327E+02 -0.11788609814E+03 -0.97232399868E+02  0.20102004121E+03  0.91235085786E+02 0.  0.
          5    1    4    4  502    0 -0.40614287980E+02 -0.71651303240E+02 -0.10116895303E+03  0.13053994294E+03  0.47000000000E+01 0. -1.
         -5    1    4    4    0  502 -0.52841286347E+02 -0.46234794901E+02  0.39365531665E+01  0.70480098277E+02  0.47000000000E+01 0.  1.
          5    1    3    3  503    0  0.77618975435E+02  0.30895854335E+02 -0.42305600269E+02  0.93760935238E+02  0.47000000000E+01 0. -1.
         -5    1    3    3    0  503  0.15836598892E+02  0.86990243805E+02 -0.43737210426E+02  0.98757956427E+02  0.47000000000E+01 0.  1.
<mgrwt>
<rscale>  0 0.17500292E+03</rscale>
<asrwt>0</asrwt>
<pdfrwt beam="1">  1        2 0.44370318E-01 0.17594010E+03</pdfrwt>
<pdfrwt beam="2">  1       -2 0.16174133E-01 0.17594010E+03</pdfrwt>
<totfact> 0.33678852E+03</totfact>
</mgrwt>
</event>
<event>
 8    1  0.6836165E-004  0.1189255E+03  0.7546771E-02  0.1245536E+00
          2   -1    0    0  501    0  0.00000000000E+00  0.00000000000E+00  0.93385576481E+03  0.93385576481E+03  0.00000000000E+00 0. -1.
         -2   -1    0    0    0  501 -0.00000000000E+00 -0.00000000000E+00 -0.15054455881E+02  0.15054455881E+02  0.00000000000E+00 0.  1.
         23    2    1    2    0    0 -0.19822113263E+02 -0.76784865843E+02  0.49647273664E+03  0.51015665075E+03  0.86520507877E+02 0.  0.
         23    2    1    2    0    0  0.19822113263E+02  0.76784865843E+02  0.42232857229E+03  0.43875356994E+03  0.88625280621E+02 0.  0.
          5    1    3    3  502    0 -0.41130378275E+02 -0.84594014730E+02  0.40095335532E+03  0.41186592295E+03  0.47000000000E+01 0. -1.
         -5    1    4    4    0  503  0.47018121992E+02  0.49033484740E+02  0.34952256004E+03  0.35609422404E+03  0.47000000000E+01 0.  1.
          5    1    4    4  503    0 -0.27196008729E+02  0.27751381103E+02  0.72806012253E+02  0.82659345897E+02  0.47000000000E+01 0. -1.
         -5    1    3    3    0  502  0.21308265011E+02  0.78091488874E+01  0.95519381321E+02  0.98290727803E+02  0.47000000000E+01 0.  1.
<mgrwt>
<rscale>  0 0.11853353E+03</rscale>
<asrwt>0</asrwt>
<pdfrwt beam="1">  1        2 0.14367007E+00 0.11892549E+03</pdfrwt>
<pdfrwt beam="2">  1       -2 0.23160709E-02 0.11892549E+03</pdfrwt>
<totfact> 0.16996936E+04</totfact>
</mgrwt>
</event>
<event>
 8    1  0.6836165E-004  0.9699777E+02  0.7546771E-02  0.1286934E+00
         -1   -1    0    0    0  501 -0.00000000000E+00  0.00000000000E+00  0.93625619265E+02  0.93625619265E+02  0.00000000000E+00 0.  1.
          1   -1    0    0  501    0  0.00000000000E+00 -0.00000000000E+00 -0.28072735955E+03  0.28072735955E+03  0.00000000000E+00 0. -1.
         23    2    1    2    0    0  0.20707175104E+02 -0.24143719105E+02  0.56519673777E+02  0.11226326634E+03  0.91634388585E+02 0.  0.
         23    2    1    2    0    0 -0.20707175104E+02  0.24143719105E+02 -0.24362141406E+03  0.26208971248E+03  0.91257425587E+02 0.  0.
          5    1    4    4  502    0 -0.89897477189E+01  0.57531387583E+02 -0.17864564621E+03  0.18795486967E+03  0.47000000000E+01 0. -1.
         -5    1    4    4    0  502 -0.11717427385E+02 -0.33387668478E+02 -0.64975767851E+02  0.74134842812E+02  0.47000000000E+01 0.  1.
          5    1    3    3  503    0  0.83975204650E+01  0.28010911742E+02  0.49949197702E+02  0.58070146182E+02  0.47000000000E+01 0. -1.
         -5    1    3    3    0  503  0.12309654639E+02 -0.52154630847E+02  0.65704760756E+01  0.54193120153E+02  0.47000000000E+01 0.  1.
<mgrwt>
<rscale>  0 0.96908637E+02</rscale>
<asrwt>0</asrwt>
<pdfrwt beam="1">  1        1 0.43188824E-01 0.96997770E+02</pdfrwt>
<pdfrwt beam="2">  1       -1 0.14403942E-01 0.96997770E+02</pdfrwt>
<totfact> 0.31116695E+03</totfact>
</mgrwt>
</event>
<event>
 8    1  0.6836165E-004  0.9413787E+02  0.7546771E-02  0.1293472E+00
         -2   -1    0    0    0  501 -0.00000000000E+00  0.00000000000E+00  0.73705579108E+03  0.73705579108E+03  0.00000000000E+00 0.  1.
          2   -1    0    0  501    0  0.00000000000E+00 -0.00000000000E+00 -0.12352787410E+02  0.12352787410E+02  0.00000000000E+00 0. -1.
         23    2    1    2    0    0 -0.23361328445E+02 -0.26266926290E+01  0.29557208739E+03  0.31020122078E+03  0.91155292492E+02 0.  0.
         23    2    1    2    0    0  0.23361328445E+02  0.26266926290E+01  0.42913091628E+03  0.43920735771E+03  0.90537884759E+02 0.  0.
          5    1    3    3  502    0 -0.94027324435E+01  0.34162588540E+02  0.50056281720E+02  0.61507846432E+02  0.47000000000E+01 0. -1.
         -5    1    3    3    0  502 -0.13958596002E+02 -0.36789281169E+02  0.24551580567E+03  0.24869337435E+03  0.47000000000E+01 0.  1.
          5    1    4    4  503    0 -0.31572701077E+02  0.67242145385E+01  0.23851935773E+03  0.24073974439E+03  0.47000000000E+01 0. -1.
         -5    1    4    4    0  503  0.54934029522E+02 -0.40975219095E+01  0.19061155855E+03  0.19846761332E+03  0.47000000000E+01 0.  1.
<mgrwt>
<rscale>  0 0.93988083E+02</rscale>
<asrwt>0</asrwt>
<pdfrwt beam="1">  1        2 0.19004294E-02 0.94137870E+02</pdfrwt>
<pdfrwt beam="2">  1       -2 0.11339316E+00 0.94137870E+02</pdfrwt>
<totfact> 0.34362364E+03</totfact>
</mgrwt>
</event>
<event>
 8    1  0.6836165E-004  0.1025953E+03  0.7546771E-02  0.1276571E+00
          2   -1    0    0  501    0  0.00000000000E+00  0.00000000000E+00  0.51362806762E+03  0.51362806762E+03  0.00000000000E+00 0. -1.
         -2   -1    0    0    0  501 -0.00000000000E+00 -0.00000000000E+00 -0.50204097734E+02  0.50204097734E+02  0.00000000000E+00 0.  1.
         23    2    1    2    0    0  0.41056865553E+02  0.25734603528E+02  0.45230056864E+03  0.46379047180E+03  0.90431528291E+02 0.  0.
         23    2    1    2    0    0 -0.41056865553E+02 -0.25734603528E+02  0.11123401244E+02  0.10004169356E+03  0.86814021716E+02 0.  0.
          5    1    4    4  502    0 -0.56533215142E+02 -0.27097753986E+01  0.31831314851E+02  0.65105068175E+02  0.47000000000E+01 0. -1.
         -5    1    4    4    0  502  0.15476349588E+02 -0.23024828129E+02 -0.20707913608E+02  0.34936625380E+02  0.47000000000E+01 0.  1.
          5    1    3    3  503    0  0.48320284802E+02 -0.22055362184E+02  0.20944922821E+03  0.21613041924E+03  0.47000000000E+01 0. -1.
         -5    1    3    3    0  503 -0.72634192489E+01  0.47789965712E+02  0.24285134043E+03  0.24766005256E+03  0.47000000000E+01 0.  1.
<mgrwt>
<rscale>  0 0.10179245E+03</rscale>
<asrwt>0</asrwt>
<pdfrwt beam="1">  1        2 0.79019699E-01 0.10259531E+03</pdfrwt>
<pdfrwt beam="2">  1       -2 0.77237077E-02 0.10259531E+03</pdfrwt>
<totfact> 0.57102994E+03</totfact>
</mgrwt>
</event>
<event>
 8    1  0.6836165E-004  0.1217739E+03  0.7546771E-02  0.1240584E+00
          2   -1    0    0  501    0  0.00000000000E+00  0.00000000000E+00  0.61739635777E+03  0.61739635777E+03  0.00000000000E+00 0. -1.
         -2   -1    0    0    0  501 -0.00000000000E+00 -0.00000000000E+00 -0.25917164797E+02  0.25917164797E+02  0.00000000000E+00 0.  1.
         23    2    1    2    0    0 -0.53676150564E+02  0.59720240972E+02  0.38804638987E+03  0.40670489842E+03  0.91549098260E+02 0.  0.
         23    2    1    2    0    0  0.53676150564E+02 -0.59720240972E+02  0.20343280311E+03  0.23660862414E+03  0.90283438783E+02 0.  0.
          5    1    4    4  502    0  0.22882984213E+02  0.17431766307E+02  0.20475250374E+02  0.35620546331E+02  0.47000000000E+01 0. -1.
         -5    1    3    3    0  503 -0.73651888639E+02  0.19079922569E+02  0.23953256728E+03  0.25136941925E+03  0.47000000000E+01 0.  1.
          5    1    3    3  503    0  0.19975738075E+02  0.40640318402E+02  0.14851382259E+03  0.15533547918E+03  0.47000000000E+01 0. -1.
         -5    1    4    4    0  502  0.30793166351E+02 -0.77152007278E+02  0.18295755273E+03  0.20098807781E+03  0.47000000000E+01 0.  1.
<mgrwt>
<rscale>  0 0.12153601E+03</rscale>
<asrwt>0</asrwt>
<pdfrwt beam="1">  1        2 0.94984044E-01 0.12177386E+03</pdfrwt>
<pdfrwt beam="2">  1       -2 0.39872566E-02 0.12177386E+03</pdfrwt>
<totfact> 0.12716342E+04</totfact>
</mgrwt>
</event>
<event>
 8    1  0.6836165E-004  0.9522821E+02  0.7546771E-02  0.1291760E+00
          1   -1    0    0  501    0  0.00000000000E+00  0.00000000000E+00  0.33375414049E+03  0.33375414049E+03  0.00000000000E+00 0. -1.
         -1   -1    0    0    0  501 -0.00000000000E+00 -0.00000000000E+00 -0.33640202096E+02  0.33640202096E+02  0.00000000000E+00 0.  1.
         23    2    1    2    0    0  0.25695948799E+02 -0.30109596852E+01  0.67374423211E+02  0.11665215421E+03  0.91646410269E+02 0.  0.
         23    2    1    2    0    0 -0.25695948799E+02  0.30109596852E+01  0.23273951519E+03  0.25074218838E+03  0.89636016435E+02 0.  0.
          5    1    3    3  502    0  0.48463149032E+02  0.13474358976E+01  0.77002637571E+02  0.91115248946E+02  0.47000000000E+01 0. -1.
         -5    1    3    3    0  502 -0.22767200234E+02 -0.43583955828E+01 -0.96282143599E+01  0.25536905261E+02  0.47000000000E+01 0.  1.
          5    1    4    4  503    0 -0.51718596037E+02 -0.15838316505E+02  0.96887457241E+02  0.11106275171E+03  0.47000000000E+01 0. -1.
         -5    1    4    4    0  503  0.26022647238E+02  0.18849276190E+02  0.13585205795E+03  0.13967943668E+03  0.47000000000E+01 0.  1.
<mgrwt>
<rscale>  0 0.94741193E+02</rscale>
<asrwt>0</asrwt>
<pdfrwt beam="1">  1        1 0.51346789E-01 0.95228211E+02</pdfrwt>
<pdfrwt beam="2">  1       -1 0.51754159E-02 0.95228211E+02</pdfrwt>
<totfact> 0.11706746E+04</totfact>
</mgrwt>
</event>
<event>
 8    1  0.6836165E-004  0.1065174E+03  0.7546771E-02  0.1269007E+00
          2   -1    0    0  501    0  0.00000000000E+00  0.00000000000E+00  0.50253443785E+03  0.50253443785E+03  0.00000000000E+00 0. -1.
         -2   -1    0    0    0  501 -0.00000000000E+00 -0.00000000000E+00 -0.24025977533E+02  0.24025977533E+02  0.00000000000E+00 0.  1.
         23    2    1    2    0    0  0.39523733129E+02  0.29950311175E+02  0.31568338438E+03  0.33198917559E+03  0.90009260147E+02 0.  0.
         23    2    1    2    0    0 -0.39523733129E+02 -0.29950311175E+02  0.16282507593E+03  0.19457123980E+03  0.94269907089E+02 0.  0.
          5    1    3    3  502    0  0.64454229574E+02  0.39073921345E+02  0.24312273278E+03  0.25458175943E+03  0.47000000000E+01 0. -1.
         -5    1    4    4    0  503 -0.35212530860E+02 -0.63287069400E+02  0.11108666170E+03  0.13269330010E+03  0.47000000000E+01 0.  1.
          5    1    4    4  503    0 -0.43112022691E+01  0.33336758225E+02  0.51738414231E+02  0.61877939696E+02  0.47000000000E+01 0. -1.
         -5    1    3    3    0  502 -0.24930496445E+02 -0.91236101692E+01  0.72560651601E+02  0.77407416158E+02  0.47000000000E+01 0.  1.
<mgrwt>
<rscale>  0 0.10556688E+03</rscale>
<asrwt>0</asrwt>
<pdfrwt beam="1">  1        2 0.77312983E-01 0.10651743E+03</pdfrwt>
<pdfrwt beam="2">  1       -2 0.36963046E-02 0.10651743E+03</pdfrwt>
<totfact> 0.17686066E+04</totfact>
</mgrwt>
</event>
<event>
 8    1  0.6836165E-004  0.3471837E+03  0.7546771E-02  0.1063782E+00
         -1   -1    0    0    0  501 -0.00000000000E+00  0.00000000000E+00  0.45420120372E+03  0.45420120372E+03  0.00000000000E+00 0.  1.
          1   -1    0    0  501    0  0.00000000000E+00 -0.00000000000E+00 -0.42124631588E+03  0.42124631588E+03  0.00000000000E+00 0. -1.
         23    2    1    2    0    0  0.13817696297E+03 -0.30482413235E+03 -0.24981527980E+03  0.42771975503E+03  0.92335746401E+02 0.  0.
         23    2    1    2    0    0 -0.13817696297E+03  0.30482413235E+03  0.28277016763E+03  0.44772776457E+03  0.92144227755E+02 0.  0.
          5    1    4    4  502    0 -0.51778185333E+02  0.89361007792E+02  0.37470671845E+02  0.10996595582E+03  0.47000000000E+01 0. -1.
         -5    1    4    4    0  502 -0.86398777634E+02  0.21546312456E+03  0.24529949579E+03  0.33776180876E+03  0.47000000000E+01 0.  1.
          5    1    3    3  503    0  0.11839504094E+03 -0.25327872061E+03 -0.24556756575E+03  0.37214649720E+03  0.47000000000E+01 0. -1.
         -5    1    3    3    0  503  0.19781922030E+02 -0.51545411742E+02 -0.42477140483E+01  0.55573257827E+02  0.47000000000E+01 0.  1.
<mgrwt>
<rscale>  0 0.34717097E+03</rscale>
<asrwt>0</asrwt>
<pdfrwt beam="1">  1        1 0.64807126E-01 0.34718369E+03</pdfrwt>
<pdfrwt beam="2">  1       -1 0.69877108E-01 0.34718369E+03</pdfrwt>
<totfact> 0.12193253E+02</totfact>
</mgrwt>
</event>
<event>
 8    1  0.6836165E-004  0.1142060E+03  0.7546771E-02  0.1255203E+00
         -2   -1    0    0    0  501 -0.00000000000E+00  0.00000000000E+00  0.31718122864E+03  0.31718122864E+03  0.00000000000E+00 0.  1.
          2   -1    0    0  501    0  0.00000000000E+00 -0.00000000000E+00 -0.39937249377E+02  0.39937249377E+02  0.00000000000E+00 0. -1.
         23    2    1    2    0    0  0.35920020543E+02 -0.57599752209E+02  0.16308342824E+03  0.19909601035E+03  0.91842459899E+02 0.  0.
         23    2    1    2    0    0 -0.35920020543E+02  0.57599752209E+02  0.11416055102E+03  0.15802246767E+03  0.85618278115E+02 0.  0.
          5    1    3    3  502    0  0.54327092290E+02 -0.80659390086E+01  0.51026694395E+02  0.75115283862E+02  0.47000000000E+01 0. -1.
         -5    1    3    3    0  502 -0.18407071747E+02 -0.49533813200E+02  0.11205673384E+03  0.12398072649E+03  0.47000000000E+01 0.  1.
          5    1    4    4  503    0  0.24870121174E+02  0.37129171242E+02  0.45818567894E+02  0.64175769946E+02  0.47000000000E+01 0. -1.
         -5    1    4    4    0  503 -0.60790141717E+02  0.20470580966E+02  0.68341983130E+02  0.93846697721E+02  0.47000000000E+01 0.  1.
<mgrwt>
<rscale>  0 0.11294977E+03</rscale>
<asrwt>0</asrwt>
<pdfrwt beam="1">  1        2 0.61441924E-02 0.11420603E+03</pdfrwt>
<pdfrwt beam="2">  1       -2 0.48797111E-01 0.11420603E+03</pdfrwt>
<totfact> 0.45299167E+03</totfact>
</mgrwt>
</event>
<event>
 8    1  0.6836165E-004  0.1737467E+03  0.7546771E-02  0.1174498E+00
         -1   -1    0    0    0  501 -0.00000000000E+00  0.00000000000E+00  0.27694085100E+03  0.27694085100E+03  0.00000000000E+00 0.  1.
          1   -1    0    0  501    0  0.00000000000E+00 -0.00000000000E+00 -0.12060353690E+03  0.12060353690E+03  0.00000000000E+00 0. -1.
         23    2    1    2    0    0 -0.99142527257E+01  0.14915082771E+03  0.12939719564E+02  0.17226503827E+03  0.84637729499E+02 0.  0.
         23    2    1    2    0    0  0.99142527257E+01 -0.14915082771E+03  0.14339759453E+03  0.22527934963E+03  0.88564402757E+02 0.  0.
          5    1    4    4  502    0 -0.29667360806E+02 -0.11595196075E+03  0.83339046922E+02  0.14591948547E+03  0.47000000000E+01 0. -1.
         -5    1    3    3    0  503  0.31033116309E+02  0.25720231645E+02 -0.50687891722E+01  0.40894587018E+02  0.47000000000E+01 0.  1.
          5    1    3    3  503    0 -0.40947369034E+02  0.12343059607E+03  0.18008508736E+02  0.13137045126E+03  0.47000000000E+01 0. -1.
         -5    1    4    4    0  502  0.39581613532E+02 -0.33198866965E+02  0.60058547611E+02  0.79359864155E+02  0.47000000000E+01 0.  1.
<mgrwt>
<rscale>  0 0.17325251E+03</rscale>
<asrwt>0</asrwt>
<pdfrwt beam="1">  1        1 0.18554390E-01 0.17374670E+03</pdfrwt>
<pdfrwt beam="2">  1       -1 0.42606284E-01 0.17374670E+03</pdfrwt>
<totfact> 0.15321702E+03</totfact>
</mgrwt>
</event>
<event>
 8    1  0.6836165E-004  0.1086578E+03  0.7546771E-02  0.1264229E+00
         -2   -1    0    0    0  501 -0.00000000000E+00  0.00000000000E+00  0.27781305167E+03  0.27781305167E+03  0.00000000000E+00 0.  1.
          2   -1    0    0  501    0  0.00000000000E+00 -0.00000000000E+00 -0.48425438466E+02  0.48425438466E+02  0.00000000000E+00 0. -1.
         23    2    1    2    0    0 -0.23876884895E+02 -0.55026804278E+02  0.17501685950E+03  0.20473666808E+03  0.87682080981E+02 0.  0.
         23    2    1    2    0    0  0.23876884895E+02  0.55026804278E+02  0.54370753700E+02  0.12150182205E+03  0.90600546814E+02 0.  0.
          5    1    4    4  502    0 -0.26337184886E+02 -0.79699973553E+01  0.12461012785E+02  0.30570165279E+02  0.47000000000E+01 0.  1.
         -5    1    4    4    0  502  0.50214069782E+02  0.62996801634E+02  0.41909740915E+02  0.90931656774E+02  0.47000000000E+01 0. -1.
          5    1    3    3  503    0  0.23077693324E+02  0.54570899581E+01  0.74279590153E+02  0.78114705870E+02  0.47000000000E+01 0. -1.
         -5    1    3    3    0  503 -0.46954578220E+02 -0.60483894237E+02  0.10073726935E+03  0.12662196221E+03  0.47000000000E+01 0.  1.
<mgrwt>
<rscale>  0 0.10804735E+03</rscale>
<asrwt>0</asrwt>
<pdfrwt beam="1">  1        2 0.74500676E-02 0.10865778E+03</pdfrwt>
<pdfrwt beam="2">  1       -2 0.42740468E-01 0.10865778E+03</pdfrwt>
<totfact> 0.45675778E+03</totfact>
</mgrwt>
</event>
<event>
 8    1  0.6836165E-004  0.9810105E+02  0.7546771E-02  0.1286829E+00
          1   -1    0    0  501    0  0.00000000000E+00  0.00000000000E+00  0.62869872944E+02  0.62869872944E+02  0.00000000000E+00 0. -1.
         -1   -1    0    0    0  501 -0.00000000000E+00 -0.00000000000E+00 -0.18742666559E+03  0.18742666559E+03  0.00000000000E+00 0.  1.
         23    2    1    2    0    0  0.30306942720E+02 -0.13678032769E+02 -0.46902956518E+01  0.98213113611E+02  0.92294189711E+02 0.  0.
         23    2    1    2    0    0 -0.30306942720E+02  0.13678032769E+02 -0.11986649699E+03  0.15208342492E+03  0.87497380971E+02 0.  0.
          5    1    3    3  502    0 -0.20700313240E+02  0.16747683160E+01  0.28273474762E+02  0.35394733962E+02  0.47000000000E+01 0. -1.
         -5    1    3    3    0  502  0.51007255961E+02 -0.15352801085E+02 -0.32963770414E+02  0.62818379648E+02  0.47000000000E+01 0.  1.
          5    1    4    4  503    0  0.71539529248E+01  0.30453462104E+02 -0.10249589236E+03  0.10726644558E+03  0.47000000000E+01 0. -1.
         -5    1    4    4    0  503 -0.37460895645E+02 -0.16775429335E+02 -0.17370604631E+02  0.44816979340E+02  0.47000000000E+01 0.  1.
<mgrwt>
<rscale>  0 0.96956491E+02</rscale>
<asrwt>0</asrwt>
<pdfrwt beam="1">  1        1 0.96722884E-02 0.98101054E+02</pdfrwt>
<pdfrwt beam="2">  1       -1 0.28834871E-01 0.98101054E+02</pdfrwt>
<totfact> 0.67758673E+03</totfact>
</mgrwt>
</event>
<event>
 8    1  0.6836165E-004  0.9502784E+02  0.7546771E-02  0.1291972E+00
         -1   -1    0    0    0  501 -0.00000000000E+00  0.00000000000E+00  0.11678609389E+02  0.11678609389E+02  0.00000000000E+00 0.  1.
          1   -1    0    0  501    0  0.00000000000E+00 -0.00000000000E+00 -0.77802570769E+03  0.77802570769E+03  0.00000000000E+00 0. -1.
         23    2    1    2    0    0 -0.18236931661E+02 -0.16417043424E+02 -0.32773665157E+03  0.34123540843E+03  0.91805153408E+02 0.  0.
         23    2    1    2    0    0  0.18236931661E+02  0.16417043424E+02 -0.43861044673E+03  0.44846890865E+03  0.90239309912E+02 0.  0.
          5    1    3    3  502    0 -0.18311996782E+02 -0.44285277694E+02 -0.29062870316E+03  0.29459064505E+03  0.47000000000E+01 0. -1.
         -5    1    4    4    0  503 -0.31361669804E+02  0.68617265406E+01 -0.28169008241E+03  0.28355251745E+03  0.47000000000E+01 0.  1.
          5    1    4    4  503    0  0.49598601465E+02  0.95553168837E+01 -0.15692036432E+03  0.16491639120E+03  0.47000000000E+01 0. -1.
         -5    1    3    3    0  502  0.75065120593E-01  0.27868234269E+02 -0.37107948408E+02  0.46644763383E+02  0.47000000000E+01 0.  1.
<mgrwt>
<rscale>  0 0.94647601E+02</rscale>
<asrwt>0</asrwt>
<pdfrwt beam="1">  1        1 0.11969623E+00 0.95027844E+02</pdfrwt>
<pdfrwt beam="2">  1       -1 0.17967097E-02 0.95027844E+02</pdfrwt>
<totfact> 0.17793785E+04</totfact>
</mgrwt>
</event>
<event>
 8    1  0.6836165E-004  0.9076441E+02  0.7546771E-02  0.1311089E+00
         -2   -1    0    0    0  501 -0.00000000000E+00  0.00000000000E+00  0.58507854640E+02  0.58507854640E+02  0.00000000000E+00 0.  1.
          2   -1    0    0  501    0  0.00000000000E+00 -0.00000000000E+00 -0.18663695270E+03  0.18663695270E+03  0.00000000000E+00 0. -1.
         23    2    1    2    0    0  0.13663728038E+02 -0.95546848655E+01  0.13719390626E+02  0.76742988927E+02  0.73642889701E+02 0.  0.
         23    2    1    2    0    0 -0.13663728038E+02  0.95546848655E+01 -0.14184848869E+03  0.16840181841E+03  0.89219892599E+02 0.  0.
          5    1    3    3  502    0 -0.22397634550E+02  0.15226924631E+02  0.17479959575E+02  0.32575331985E+02  0.47000000000E+01 0. -1.
         -5    1    4    4    0  503 -0.29713874104E+02  0.42392118923E+02 -0.65458387601E+02  0.83587657991E+02  0.47000000000E+01 0.  1.
          5    1    4    4  503    0  0.16050146066E+02 -0.32837434058E+02 -0.76390101086E+02  0.84814160422E+02  0.47000000000E+01 0. -1.
         -5    1    3    3    0  502  0.36061362589E+02 -0.24781609496E+02 -0.37605689490E+01  0.44167656942E+02  0.47000000000E+01 0.  1.
<mgrwt>
<rscale>  0 0.86682834E+02</rscale>
<asrwt>0</asrwt>
<pdfrwt beam="1">  1        2 0.28713377E-01 0.90764413E+02</pdfrwt>
<pdfrwt beam="2">  1       -2 0.90012084E-02 0.90764413E+02</pdfrwt>
<totfact> 0.13055159E+04</totfact>
</mgrwt>
</event>
<event>
 8    1  0.6836165E-004  0.1354547E+03  0.7546771E-02  0.1220280E+00
          1   -1    0    0  501    0  0.00000000000E+00  0.00000000000E+00  0.65386116481E+02  0.65386116481E+02  0.00000000000E+00 0. -1.
         -1   -1    0    0    0  501 -0.00000000000E+00 -0.00000000000E+00 -0.32336968938E+03  0.32336968938E+03  0.00000000000E+00 0.  1.
         23    2    1    2    0    0  0.41762056794E+02  0.91662747776E+02 -0.55823854437E+02  0.14650693331E+03  0.90564066083E+02 0.  0.
         23    2    1    2    0    0 -0.41762056794E+02 -0.91662747776E+02 -0.20215971846E+03  0.24224887255E+03  0.87577598546E+02 0.  0.
          5    1    4    4  502    0 -0.24507738191E+02  0.60311913494E+00 -0.74596827356E+01  0.26052444231E+02  0.47000000000E+01 0. -1.
         -5    1    3    3    0  503 -0.16823525085E+02  0.31597615162E+02 -0.50796038180E+02  0.62319882662E+02  0.47000000000E+01 0.  1.
          5    1    3    3  503    0  0.58585581880E+02  0.60065132614E+02 -0.50278162574E+01  0.84187050646E+02  0.47000000000E+01 0. -1.
         -5    1    4    4    0  502 -0.17254318604E+02 -0.92265866910E+02 -0.19470003572E+03  0.21619642832E+03  0.47000000000E+01 0.  1.
<mgrwt>
<rscale>  0 0.13495742E+03</rscale>
<asrwt>0</asrwt>
<pdfrwt beam="1">  1        1 0.10059402E-01 0.13545471E+03</pdfrwt>
<pdfrwt beam="2">  1       -1 0.49749184E-01 0.13545471E+03</pdfrwt>
<totfact> 0.25534518E+03</totfact>
</mgrwt>
</event>
<event>
 8    1  0.6836165E-004  0.9373977E+02  0.7546771E-02  0.1294673E+00
         -1   -1    0    0    0  501 -0.00000000000E+00  0.00000000000E+00  0.40740539633E+02  0.40740539633E+02  0.00000000000E+00 0.  1.
          1   -1    0    0  501    0  0.00000000000E+00 -0.00000000000E+00 -0.25496606109E+03  0.25496606109E+03  0.00000000000E+00 0. -1.
         23    2    1    2    0    0 -0.70117230237E+00 -0.16176273779E+02 -0.16644817686E+03  0.19049339281E+03  0.91217178478E+02 0.  0.
         23    2    1    2    0    0  0.70117230237E+00  0.16176273779E+02 -0.47777344597E+02  0.10521320791E+03  0.92330823597E+02 0.  0.
          5    1    3    3  502    0  0.27351422999E+02  0.77491384096E+01 -0.14446600592E+03  0.14731146035E+03  0.47000000000E+01 0. -1.
         -5    1    4    4    0  503  0.83934471354E+01 -0.24836232104E+02 -0.56375534130E+02  0.62350454918E+02  0.47000000000E+01 0.  1.
          5    1    4    4  503    0 -0.76922748331E+01  0.41012505883E+02  0.85981895331E+01  0.42862752993E+02  0.47000000000E+01 0. -1.
         -5    1    3    3    0  502 -0.28052595301E+02 -0.23925412189E+02 -0.21982170944E+02  0.43181932460E+02  0.47000000000E+01 0.  1.
<mgrwt>
<rscale>  0 0.93464382E+02</rscale>
<asrwt>0</asrwt>
<pdfrwt beam="1">  1        1 0.39225548E-01 0.93739770E+02</pdfrwt>
<pdfrwt beam="2">  1       -1 0.62677754E-02 0.93739770E+02</pdfrwt>
<totfact> 0.12257091E+04</totfact>
</mgrwt>
</event>
<event>
 8    1  0.6836165E-004  0.9316727E+02  0.7546771E-02  0.1296096E+00
         -1   -1    0    0    0  501 -0.00000000000E+00  0.00000000000E+00  0.45933367065E+02  0.45933367065E+02  0.00000000000E+00 0.  1.
          1   -1    0    0  501    0  0.00000000000E+00 -0.00000000000E+00 -0.19879079093E+03  0.19879079093E+03  0.00000000000E+00 0. -1.
         23    2    1    2    0    0 -0.10217519772E+02 -0.17691360243E+02 -0.10647211949E+03  0.14064852925E+03  0.89600862793E+02 0.  0.
         23    2    1    2    0    0  0.10217519772E+02  0.17691360243E+02 -0.46385304373E+02  0.10407562875E+03  0.90899714518E+02 0.  0.
          5    1    3    3  502    0  0.32001409460E+02  0.80804440281E+01 -0.74351730647E+02  0.81484069813E+02  0.47000000000E+01 0. -1.
         -5    1    3    3    0  502 -0.42218929231E+02 -0.25771804271E+02 -0.32120388846E+02  0.59164459437E+02  0.47000000000E+01 0.  1.
          5    1    4    4  503    0  0.49605145241E+02  0.13662742421E+02 -0.35689969964E+02  0.62794943434E+02  0.47000000000E+01 0. -1.
         -5    1    4    4    0  503 -0.39387625469E+02  0.40286178216E+01 -0.10695334409E+02  0.41280685311E+02  0.47000000000E+01 0.  1.
<mgrwt>
<rscale>  0 0.92848942E+02</rscale>
<asrwt>0</asrwt>
<pdfrwt beam="1">  1        1 0.30583199E-01 0.93167269E+02</pdfrwt>
<pdfrwt beam="2">  1       -1 0.70666718E-02 0.93167269E+02</pdfrwt>
<totfact> 0.13908837E+04</totfact>
</mgrwt>
</event>
<event>
 8    1  0.6836165E-004  0.1294070E+03  0.7546771E-02  0.1228761E+00
         -1   -1    0    0    0  501 -0.00000000000E+00  0.00000000000E+00  0.21643143171E+02  0.21643143171E+02  0.00000000000E+00 0.  1.
          1   -1    0    0  501    0  0.00000000000E+00 -0.00000000000E+00 -0.92526419099E+03  0.92526419099E+03  0.00000000000E+00 0. -1.
         23    2    1    2    0    0  0.89305529629E+02  0.23121267458E+02 -0.25436662373E+03  0.28488205268E+03  0.89136603269E+02 0.  0.
         23    2    1    2    0    0 -0.89305529629E+02 -0.23121267458E+02 -0.64925442409E+03  0.66202528148E+03  0.90752936506E+02 0.  0.
          5    1    3    3  502    0  0.13792487336E+02  0.43498528024E+02 -0.13034505368E+03  0.13818204538E+03  0.47000000000E+01 0. -1.
         -5    1    4    4    0  503  0.73003347561E+01  0.21112020067E+02 -0.13033890540E+03  0.13232283454E+03  0.47000000000E+01 0.  1.
          5    1    4    4  503    0 -0.96605864385E+02 -0.44233287524E+02 -0.51891551869E+03  0.52970244694E+03  0.47000000000E+01 0. -1.
         -5    1    3    3    0  502  0.75513042293E+02 -0.20377260566E+02 -0.12402157005E+03  0.14670000730E+03  0.47000000000E+01 0.  1.
<mgrwt>
<rscale>  0 0.12912396E+03</rscale>
<asrwt>0</asrwt>
<pdfrwt beam="1">  1        1 0.14234830E+00 0.12940698E+03</pdfrwt>
<pdfrwt beam="2">  1       -1 0.33297151E-02 0.12940698E+03</pdfrwt>
<totfact> 0.57202817E+03</totfact>
</mgrwt>
</event>
<event>
 8    1  0.6836165E-004  0.9398441E+02  0.7546771E-02  0.1293642E+00
         -1   -1    0    0    0  501 -0.00000000000E+00  0.00000000000E+00  0.39273495642E+02  0.39273495642E+02  0.00000000000E+00 0.  1.
          1   -1    0    0  501    0  0.00000000000E+00 -0.00000000000E+00 -0.26110350696E+03  0.26110350696E+03  0.00000000000E+00 0. -1.
         23    2    1    2    0    0 -0.22160740044E+02 -0.53339390908E+01 -0.16720864008E+03  0.19167298146E+03  0.90885935090E+02 0.  0.
         23    2    1    2    0    0  0.22160740044E+02  0.53339390908E+01 -0.54621371240E+02  0.10870402115E+03  0.91178510144E+02 0.  0.
          5    1    4    4  502    0 -0.34711323713E+02  0.11960945626E+01 -0.10927885402E+02  0.36712604313E+02  0.47000000000E+01 0. -1.
         -5    1    3    3    0  503 -0.66218953158E+01  0.35643283832E+02 -0.12649222227E+03  0.13166877182E+03  0.47000000000E+01 0.  1.
          5    1    3    3  503    0 -0.15538844728E+02 -0.40977222923E+02 -0.40716417816E+02  0.60004209633E+02  0.47000000000E+01 0. -1.
         -5    1    4    4    0  502  0.56872063756E+02  0.41378445282E+01 -0.43693485838E+02  0.71991416835E+02  0.47000000000E+01 0.  1.
<mgrwt>
<rscale>  0 0.93913380E+02</rscale>
<asrwt>0</asrwt>
<pdfrwt beam="1">  1        1 0.40169770E-01 0.93984414E+02</pdfrwt>
<pdfrwt beam="2">  1       -1 0.60420762E-02 0.93984414E+02</pdfrwt>
<totfact> 0.12571773E+04</totfact>
</mgrwt>
</event>
<event>
 8    1  0.6836165E-004  0.9290463E+02  0.7546771E-02  0.1296337E+00
         -1   -1    0    0    0  501 -0.00000000000E+00  0.00000000000E+00  0.22701422212E+03  0.22701422212E+03  0.00000000000E+00 0.  1.
          1   -1    0    0  501    0  0.00000000000E+00 -0.00000000000E+00 -0.42532270857E+02  0.42532270857E+02  0.00000000000E+00 0. -1.
         23    2    1    2    0    0  0.99514011734E+01 -0.93102975301E+01  0.13709896543E+03  0.16525642652E+03  0.91257044429E+02 0.  0.
         23    2    1    2    0    0 -0.99514011734E+01  0.93102975301E+01  0.47382985835E+02  0.10429006646E+03  0.91899720297E+02 0.  0.
          5    1    4    4  502    0  0.13973592007E+02  0.44847996922E+02  0.12477797758E+02  0.48830211328E+02  0.47000000000E+01 0. -1.
         -5    1    3    3    0  503  0.37108056469E+02  0.66753622650E+00  0.12975372547E+03  0.13503915259E+03  0.47000000000E+01 0.  1.
          5    1    3    3  503    0 -0.27156655296E+02 -0.99778337566E+01  0.73452399584E+01  0.30217273924E+02  0.47000000000E+01 0. -1.
         -5    1    4    4    0  502 -0.23924993181E+02 -0.35537699392E+02  0.34905188078E+02  0.55459855134E+02  0.47000000000E+01 0.  1.
<mgrwt>
<rscale>  0 0.92745303E+02</rscale>
<asrwt>0</asrwt>
<pdfrwt beam="1">  1        1 0.65434264E-02 0.92904632E+02</pdfrwt>
<pdfrwt beam="2">  1       -1 0.34925264E-01 0.92904632E+02</pdfrwt>
<totfact> 0.82145168E+03</totfact>
</mgrwt>
</event>
<event>
 8    1  0.6836165E-004  0.9395106E+02  0.7546771E-02  0.1296750E+00
         -3   -1    0    0    0  501 -0.00000000000E+00  0.00000000000E+00  0.26500959701E+02  0.26500959701E+02  0.00000000000E+00 0.  1.
          3   -1    0    0  501    0  0.00000000000E+00 -0.00000000000E+00 -0.31567790575E+03  0.31567790575E+03  0.00000000000E+00 0. -1.
         23    2    1    2    0    0  0.20290223160E+02 -0.73231072433E+01 -0.15216850782E+03  0.17605206698E+03  0.85870568069E+02 0.  0.
         23    2    1    2    0    0 -0.20290223160E+02  0.73231072433E+01 -0.13700843823E+03  0.16612679847E+03  0.91441128430E+02 0.  0.
          5    1    3    3  502    0  0.81692523306E+01  0.36227819276E+02 -0.38807996175E+02  0.53919775039E+02  0.47000000000E+01 0. -1.
         -5    1    3    3    0  502  0.12120970830E+02 -0.43550926519E+02 -0.11336051164E+03  0.12213229194E+03  0.47000000000E+01 0.  1.
          5    1    4    4  503    0 -0.38874262132E+02  0.38137334134E+02 -0.10189386988E+03  0.11562921443E+03  0.47000000000E+01 0. -1.
         -5    1    4    4    0  503  0.18584038972E+02 -0.30814226890E+02 -0.35114568352E+02  0.50497584040E+02  0.47000000000E+01 0.  1.
<mgrwt>
<rscale>  0 0.92567675E+02</rscale>
<asrwt>0</asrwt>
<pdfrwt beam="1">  1        3 0.48565830E-01 0.93951057E+02</pdfrwt>
<pdfrwt beam="2">  1       -3 0.40770709E-02 0.93951057E+02</pdfrwt>
<totfact> 0.28408843E+03</totfact>
</mgrwt>
</event>
<event>
 8    1  0.6836165E-004  0.1095220E+03  0.7546771E-02  0.1262049E+00
         -3   -1    0    0    0  501 -0.00000000000E+00  0.00000000000E+00  0.52553912712E+02  0.52553912712E+02  0.00000000000E+00 0.  1.
          3   -1    0    0  501    0  0.00000000000E+00 -0.00000000000E+00 -0.23364916788E+03  0.23364916788E+03  0.00000000000E+00 0. -1.
         23    2    1    2    0    0  0.35940244725E+00 -0.60098944740E+02 -0.11656406521E+03  0.15908365882E+03  0.90046748291E+02 0.  0.
         23    2    1    2    0    0 -0.35940244725E+00  0.60098944740E+02 -0.64531189963E+02  0.12711942177E+03  0.91559055177E+02 0.  0.
          5    1    3    3  502    0  0.32384763733E+02  0.71860260145E+01 -0.33119250043E+02  0.47110366326E+02  0.47000000000E+01 0. -1.
         -5    1    4    4    0  503 -0.33354292259E+02  0.94530324841E+01  0.44667618236E+01  0.35269116751E+02  0.47000000000E+01 0.  1.
          5    1    4    4  503    0  0.32994889811E+02  0.50645912256E+02 -0.68997951787E+02  0.91850305022E+02  0.47000000000E+01 0. -1.
         -5    1    3    3    0  502 -0.32025361285E+02 -0.67284970754E+02 -0.83444815166E+02  0.11197329250E+03  0.47000000000E+01 0.  1.
<mgrwt>
<rscale>  0 0.10920538E+03</rscale>
<asrwt>0</asrwt>
<pdfrwt beam="1">  1        3 0.35946025E-01 0.10952202E+03</pdfrwt>
<pdfrwt beam="2">  1       -3 0.80852175E-02 0.10952202E+03</pdfrwt>
<totfact> 0.17673039E+03</totfact>
</mgrwt>
</event>
<event>
 7    1  0.6836165E-004  0.1434674E+03  0.7546771E-02  0.1221528E+00
          1   -1    0    0  501    0  0.00000000000E+00  0.00000000000E+00  0.13377332964E+03  0.13377332964E+03  0.00000000000E+00 0. -1.
         -1   -1    0    0    0  501 -0.00000000000E+00 -0.00000000000E+00 -0.17948157317E+03  0.17948157317E+03  0.00000000000E+00 0.  1.
         23    2    1    2    0    0 -0.54563308291E+02  0.24890958095E+02 -0.11078003621E+03  0.15572007351E+03  0.91541304687E+02 0.  0.
          5    1    3    3  502    0 -0.13571854625E+02  0.55927922490E+02 -0.61147980728E+02  0.84102873311E+02  0.47000000000E+01 0. -1.
         -5    1    3    3    0  502 -0.40991453666E+02 -0.31036964396E+02 -0.49632055484E+02  0.71617200197E+02  0.47000000000E+01 0.  1.
          5    1    1    2  503    0  0.33522952582E+02  0.24052660301E+02  0.89556069805E+02  0.98715239230E+02  0.47000000000E+01 0. -1.
         -5    1    1    2    0  503  0.21040355709E+02 -0.48943618395E+02 -0.24484277129E+02  0.58819590074E+02  0.47000000000E+01 0.  1.
<mgrwt>
<rscale>  0 0.13407759E+03</rscale>
<asrwt>0</asrwt>
<pdfrwt beam="1">  1        1 0.20580512E-01 0.14346736E+03</pdfrwt>
<pdfrwt beam="2">  1       -1 0.27612550E-01 0.14346736E+03</pdfrwt>
<totfact> 0.28089910E+03</totfact>
</mgrwt>
</event>
<event>
 8    1  0.6836165E-004  0.9560723E+02  0.7546771E-02  0.1291058E+00
          1   -1    0    0  501    0  0.00000000000E+00  0.00000000000E+00  0.60845270285E+02  0.60845270285E+02  0.00000000000E+00 0. -1.
         -1   -1    0    0    0  501 -0.00000000000E+00 -0.00000000000E+00 -0.14868705889E+03  0.14868705889E+03  0.00000000000E+00 0.  1.
         23    2    1    2    0    0  0.17779610231E+02 -0.20788205800E+02 -0.55237650720E+02  0.10851860704E+03  0.89313078414E+02 0.  0.
         23    2    1    2    0    0 -0.17779610231E+02  0.20788205800E+02 -0.32604137885E+02  0.10101372214E+03  0.91610469994E+02 0.  0.
          5    1    3    3  502    0  0.38448521897E+02 -0.24668670110E+02  0.33981356946E+01  0.46048555323E+02  0.47000000000E+01 0. -1.
         -5    1    4    4    0  503 -0.44096190600E+02 -0.55696433461E+01  0.83376401705E+01  0.45465384591E+02  0.47000000000E+01 0.  1.
          5    1    4    4  503    0  0.26316580369E+02  0.26357849146E+02 -0.40941778055E+02  0.55548337547E+02  0.47000000000E+01 0. -1.
         -5    1    3    3    0  502 -0.20668911667E+02  0.38804643099E+01 -0.58635786414E+02  0.62470051714E+02  0.47000000000E+01 0.  1.
<mgrwt>
<rscale>  0 0.95052663E+02</rscale>
<asrwt>0</asrwt>
<pdfrwt beam="1">  1        1 0.93608110E-02 0.95607229E+02</pdfrwt>
<pdfrwt beam="2">  1       -1 0.22874932E-01 0.95607229E+02</pdfrwt>
<totfact> 0.10302694E+04</totfact>
</mgrwt>
</event>
<event>
 8    1  0.6836165E-004  0.1001568E+03  0.7546771E-02  0.1281348E+00
          2   -1    0    0  501    0  0.00000000000E+00  0.00000000000E+00  0.28420672096E+03  0.28420672096E+03  0.00000000000E+00 0. -1.
         -2   -1    0    0    0  501 -0.00000000000E+00 -0.00000000000E+00 -0.34880181914E+02  0.34880181914E+02  0.00000000000E+00 0.  1.
         23    2    1    2    0    0  0.11254083348E+02 -0.39520481061E+02  0.10731447290E+03  0.14679160916E+03  0.91339244630E+02 0.  0.
         23    2    1    2    0    0 -0.11254083348E+02  0.39520481061E+02  0.14201206615E+03  0.17229529372E+03  0.88485696535E+02 0.  0.
          5    1    3    3  502    0 -0.24229666687E+02  0.18651990452E+02  0.24624356953E+02  0.39540137214E+02  0.47000000000E+01 0. -1.
         -5    1    4    4    0  503  0.12259592247E+02  0.50014645861E+02  0.35768011555E+02  0.62874502410E+02  0.47000000000E+01 0.  1.
          5    1    4    4  503    0 -0.23513675594E+02 -0.10494164800E+02  0.10624405459E+03  0.10942079131E+03  0.47000000000E+01 0. -1.
         -5    1    3    3    0  502  0.35483750035E+02 -0.58172471513E+02  0.82690115951E+02  0.10725147194E+03  0.47000000000E+01 0.  1.
<mgrwt>
<rscale>  0 0.99501551E+02</rscale>
<asrwt>0</asrwt>
<pdfrwt beam="1">  1        2 0.43724109E-01 0.10015678E+03</pdfrwt>
<pdfrwt beam="2">  1       -2 0.53661820E-02 0.10015678E+03</pdfrwt>
<totfact> 0.18503825E+04</totfact>
</mgrwt>
</event>
<event>
 8    1  0.6836165E-004  0.1019145E+03  0.7546771E-02  0.1279648E+00
         -2   -1    0    0    0  501 -0.00000000000E+00  0.00000000000E+00  0.17319988646E+02  0.17319988646E+02  0.00000000000E+00 0.  1.
          2   -1    0    0  501    0  0.00000000000E+00 -0.00000000000E+00 -0.56338789825E+03  0.56338789825E+03  0.00000000000E+00 0. -1.
         23    2    1    2    0    0  0.26150310733E+02  0.23020112139E+02 -0.26687146641E+03  0.28349209450E+03  0.89070891678E+02 0.  0.
         23    2    1    2    0    0 -0.26150310733E+02 -0.23020112139E+02 -0.27919644320E+03  0.29721579240E+03  0.95774782926E+02 0.  0.
          5    1    3    3  502    0  0.12974723716E+02 -0.33817850292E+02 -0.87711591480E+02  0.95012650389E+02  0.47000000000E+01 0. -1.
         -5    1    4    4    0  503 -0.16382636794E+02  0.22633116456E+02 -0.22263410349E+02  0.36033292789E+02  0.47000000000E+01 0.  1.
          5    1    4    4  503    0 -0.97676739392E+01 -0.45653228595E+02 -0.25693303285E+03  0.26118249961E+03  0.47000000000E+01 0. -1.
         -5    1    3    3    0  502  0.13175587017E+02  0.56837962431E+02 -0.17915987493E+03  0.18847944411E+03  0.47000000000E+01 0.  1.
<mgrwt>
<rscale>  0 0.10030885E+03</rscale>
<asrwt>0</asrwt>
<pdfrwt beam="1">  1        2 0.86675067E-01 0.10191454E+03</pdfrwt>
<pdfrwt beam="2">  1       -2 0.26646135E-02 0.10191454E+03</pdfrwt>
<totfact> 0.25065365E+04</totfact>
</mgrwt>
</event>
<event>
 8    1  0.6836165E-004  0.9628474E+02  0.7546771E-02  0.1290454E+00
          1   -1    0    0  501    0  0.00000000000E+00  0.00000000000E+00  0.69578463794E+02  0.69578463794E+02  0.00000000000E+00 0. -1.
         -1   -1    0    0    0  501 -0.00000000000E+00 -0.00000000000E+00 -0.12824752379E+03  0.12824752379E+03  0.00000000000E+00 0.  1.
         23    2    1    2    0    0  0.18371653997E+02 -0.26300841239E+02 -0.33892410526E+02  0.10207568702E+03  0.90782699170E+02 0.  0.
         23    2    1    2    0    0 -0.18371653997E+02  0.26300841239E+02 -0.24776649470E+02  0.95750300565E+02  0.86746675895E+02 0.  0.
          5    1    4    4  502    0  0.25681995355E+02  0.86080080577E+01  0.17012841246E+02  0.32329389964E+02  0.47000000000E+01 0. -1.
         -5    1    4    4    0  502 -0.44053649352E+02  0.17692833182E+02 -0.41789490716E+02  0.63420910602E+02  0.47000000000E+01 0.  1.
          5    1    3    3  503    0  0.51324245935E+02 -0.34476099940E+02 -0.21482239071E+02  0.65622833552E+02  0.47000000000E+01 0. -1.
         -5    1    3    3    0  503 -0.32952591938E+02  0.81752587011E+01 -0.12410171455E+02  0.36452853466E+02  0.47000000000E+01 0.  1.
<mgrwt>
<rscale>  0 0.95321474E+02</rscale>
<asrwt>0</asrwt>
<pdfrwt beam="1">  1        1 0.10704379E-01 0.96284736E+02</pdfrwt>
<pdfrwt beam="2">  1       -1 0.19730388E-01 0.96284736E+02</pdfrwt>
<totfact> 0.10954749E+04</totfact>
</mgrwt>
</event>
<event>
 8    1  0.6836165E-004  0.1020654E+03  0.7546771E-02  0.1276418E+00
          1   -1    0    0  501    0  0.00000000000E+00  0.00000000000E+00  0.31280933440E+03  0.31280933440E+03  0.00000000000E+00 0. -1.
         -1   -1    0    0    0  501 -0.00000000000E+00 -0.00000000000E+00 -0.52640982565E+02  0.52640982565E+02  0.00000000000E+00 0.  1.
         23    2    1    2    0    0 -0.38624843459E+02  0.22710532343E+02  0.18916077256E+02  0.10380346069E+03  0.91704381906E+02 0.  0.
         23    2    1    2    0    0  0.38624843459E+02 -0.22710532343E+02  0.24125227458E+03  0.26164685628E+03  0.90822742733E+02 0.  0.
          5    1    3    3  502    0 -0.54233290719E+02 -0.18610923375E+02  0.82300852345E+01  0.58115751686E+02  0.47000000000E+01 0. -1.
         -5    1    4    4    0  503  0.17039222770E+02  0.34944629635E+02  0.10473046458E+03  0.11181244324E+03  0.47000000000E+01 0.  1.
          5    1    4    4  503    0  0.21585620689E+02 -0.57655161977E+02  0.13652181000E+03  0.14983441303E+03  0.47000000000E+01 0. -1.
         -5    1    3    3    0  502  0.15608447260E+02  0.41321455717E+02  0.10685992021E+02  0.45687709003E+02  0.47000000000E+01 0.  1.
<mgrwt>
<rscale>  0 0.10186695E+03</rscale>
<asrwt>0</asrwt>
<pdfrwt beam="1">  1        1 0.48124512E-01 0.10206537E+03</pdfrwt>
<pdfrwt beam="2">  1       -1 0.80986129E-02 0.10206537E+03</pdfrwt>
<totfact> 0.65652036E+03</totfact>
</mgrwt>
</event>
<event>
 8    1  0.6836165E-004  0.1476100E+03  0.7546771E-02  0.1204745E+00
         -2   -1    0    0    0  501 -0.00000000000E+00  0.00000000000E+00  0.31330193598E+02  0.31330193598E+02  0.00000000000E+00 0.  1.
          2   -1    0    0  501    0  0.00000000000E+00 -0.00000000000E+00 -0.70486427904E+03  0.70486427904E+03  0.00000000000E+00 0. -1.
         23    2    1    2    0    0 -0.25445835053E+02  0.10924051872E+03 -0.40631060935E+03  0.43091246285E+03  0.89533557464E+02 0.  0.
         23    2    1    2    0    0  0.25445835053E+02 -0.10924051872E+03 -0.26722347609E+03  0.30528200979E+03  0.95956958458E+02 0.  0.
          5    1    4    4  502    0  0.52376256777E+02 -0.65440341204E+02 -0.21936945223E+03  0.23488456123E+03  0.47000000000E+01 0. -1.
         -5    1    4    4    0  502 -0.26930421723E+02 -0.43800177518E+02 -0.47854023857E+02  0.70397448562E+02  0.47000000000E+01 0.  1.
          5    1    3    3  503    0  0.30985276635E+02  0.27285023646E+02 -0.86808407470E+02  0.96241100841E+02  0.47000000000E+01 0. -1.
         -5    1    3    3    0  503 -0.56431111688E+02  0.81955495075E+02 -0.31950220188E+03  0.33467136201E+03  0.47000000000E+01 0.  1.
<mgrwt>
<rscale>  0 0.14657605E+03</rscale>
<asrwt>0</asrwt>
<pdfrwt beam="1">  1        2 0.10844064E+00 0.14761002E+03</pdfrwt>
<pdfrwt beam="2">  1       -2 0.48200304E-02 0.14761002E+03</pdfrwt>
<totfact> 0.83145528E+03</totfact>
</mgrwt>
</event>
<event>
 8    1  0.6836165E-004  0.1023879E+03  0.7546771E-02  0.1275633E+00
         -1   -1    0    0    0  501 -0.00000000000E+00  0.00000000000E+00  0.99362049910E+02  0.99362049910E+02  0.00000000000E+00 0.  1.
          1   -1    0    0  501    0  0.00000000000E+00 -0.00000000000E+00 -0.10635742086E+03  0.10635742086E+03  0.00000000000E+00 0. -1.
         23    2    1    2    0    0 -0.29499159516E+02  0.33534072663E+02 -0.15352650814E+02  0.10299101320E+03  0.91524370914E+02 0.  0.
         23    2    1    2    0    0  0.29499159516E+02 -0.33534072663E+02  0.83572798674E+01  0.10272845757E+03  0.92133367603E+02 0.  0.
          5    1    4    4  502    0 -0.13931208415E+02 -0.40573915521E+02  0.30892194644E+02  0.53072958072E+02  0.47000000000E+01 0.  1.
         -5    1    3    3    0  503  0.23001451034E+02 -0.16093895484E+02  0.20318709424E+01  0.28535919839E+02  0.47000000000E+01 0.  1.
          5    1    3    3  503    0 -0.52500610550E+02  0.49627968148E+02 -0.17384521757E+02  0.74455093360E+02  0.47000000000E+01 0. -1.
         -5    1    4    4    0  502  0.43430367931E+02  0.70398428577E+01 -0.22534914777E+02  0.49655499495E+02  0.47000000000E+01 0. -1.
<mgrwt>
<rscale>  0 0.10225076E+03</rscale>
<asrwt>0</asrwt>
<pdfrwt beam="1">  1        1 0.16362680E-01 0.10238795E+03</pdfrwt>
<pdfrwt beam="2">  1       -1 0.15286469E-01 0.10238795E+03</pdfrwt>
<totfact> 0.95111584E+03</totfact>
</mgrwt>
</event>
<event>
 8    1  0.6836165E-004  0.1288938E+03  0.7546771E-02  0.1230506E+00
         -1   -1    0    0    0  501 -0.00000000000E+00  0.00000000000E+00  0.97078131974E+01  0.97078131974E+01  0.00000000000E+00 0.  1.
          1   -1    0    0  501    0  0.00000000000E+00 -0.00000000000E+00 -0.16652868477E+04  0.16652868477E+04  0.00000000000E+00 0. -1.
         23    2    1    2    0    0 -0.50004264796E+02  0.65153815007E+02 -0.84718177292E+03  0.85638623694E+03  0.94525046106E+02 0.  0.
         23    2    1    2    0    0  0.50004264796E+02 -0.65153815007E+02 -0.80839726157E+03  0.81860842395E+03  0.99338678947E+02 0.  0.
          5    1    4    4  502    0  0.10070859103E+02 -0.77363257450E+02 -0.65186657858E+03  0.65653531670E+03  0.47000000000E+01 0. -1.
         -5    1    3    3    0  503  0.85785592904E+00  0.71243459174E+02 -0.57181934312E+03  0.57626019953E+03  0.47000000000E+01 0.  1.
          5    1    3    3  503    0 -0.50862120725E+02 -0.60896441665E+01 -0.27536242980E+03  0.28012603741E+03  0.47000000000E+01 0. -1.
         -5    1    4    4    0  502  0.39933405692E+02  0.12209442443E+02 -0.15653068299E+03  0.16207310725E+03  0.47000000000E+01 0.  1.
<mgrwt>
<rscale>  0 0.12796578E+03</rscale>
<asrwt>0</asrwt>
<pdfrwt beam="1">  1        1 0.25619791E+00 0.12889383E+03</pdfrwt>
<pdfrwt beam="2">  1       -1 0.14935101E-02 0.12889383E+03</pdfrwt>
<totfact> 0.57429148E+03</totfact>
</mgrwt>
</event>
<event>
 8    1  0.6836165E-004  0.1043771E+03  0.7546771E-02  0.1271365E+00
          1   -1    0    0  501    0  0.00000000000E+00  0.00000000000E+00  0.35309048156E+02  0.35309048156E+02  0.00000000000E+00 0. -1.
         -1   -1    0    0    0  501 -0.00000000000E+00 -0.00000000000E+00 -0.39661033015E+03  0.39661033015E+03  0.00000000000E+00 0.  1.
         23    2    1    2    0    0 -0.20729781352E+02  0.48528053171E+02 -0.78827495148E+02  0.13077819761E+03  0.90024814350E+02 0.  0.
         23    2    1    2    0    0  0.20729781352E+02 -0.48528053171E+02 -0.28247378685E+03  0.30114118070E+03  0.90054842610E+02 0.  0.
          5    1    3    3  502    0  0.24562282591E+02  0.52847488758E+02 -0.40785969341E+02  0.71286380812E+02  0.47000000000E+01 0. -1.
         -5    1    4    4    0  503 -0.33138131697E+02 -0.35397165543E+02 -0.12910064684E+03  0.13798609392E+03  0.47000000000E+01 0.  1.
          5    1    4    4  503    0  0.53867913049E+02 -0.13130887628E+02 -0.15337314001E+03  0.16315508678E+03  0.47000000000E+01 0. -1.
         -5    1    3    3    0  502 -0.45292063943E+02 -0.43194355871E+01 -0.38041525807E+02  0.59491816796E+02  0.47000000000E+01 0.  1.
<mgrwt>
<rscale>  0 0.10437058E+03</rscale>
<asrwt>0</asrwt>
<pdfrwt beam="1">  1        1 0.54321614E-02 0.10437706E+03</pdfrwt>
<pdfrwt beam="2">  1       -1 0.61016973E-01 0.10437706E+03</pdfrwt>
<totfact> 0.39298085E+03</totfact>
</mgrwt>
</event>
<event>
 8    1  0.6836165E-004  0.1045650E+03  0.7546771E-02  0.1272460E+00
         -2   -1    0    0    0  501 -0.00000000000E+00  0.00000000000E+00  0.12573962735E+02  0.12573962735E+02  0.00000000000E+00 0.  1.
          2   -1    0    0  501    0  0.00000000000E+00 -0.00000000000E+00 -0.94057504110E+03  0.94057504110E+03  0.00000000000E+00 0. -1.
         23    2    1    2    0    0 -0.45193477583E+02  0.24803958468E+02 -0.31825311605E+03  0.33499088799E+03  0.90973415838E+02 0.  0.
         23    2    1    2    0    0  0.45193477583E+02 -0.24803958468E+02 -0.60974796232E+03  0.61815811585E+03  0.87573922286E+02 0.  0.
          5    1    3    3  502    0 -0.27069599827E+02 -0.33501639113E+02 -0.13163195745E+03  0.13857916611E+03  0.47000000000E+01 0. -1.
         -5    1    4    4    0  503  0.54696007089E+02  0.17632755921E+02 -0.32638135847E+03  0.33143543629E+03  0.47000000000E+01 0.  1.
          5    1    4    4  503    0 -0.95025295055E+01 -0.42436714389E+02 -0.28336660385E+03  0.28672267955E+03  0.47000000000E+01 0. -1.
         -5    1    3    3    0  502 -0.18123877757E+02  0.58305597581E+02 -0.18662115859E+03  0.19641172187E+03  0.47000000000E+01 0.  1.
<mgrwt>
<rscale>  0 0.10382120E+03</rscale>
<asrwt>0</asrwt>
<pdfrwt beam="1">  1        2 0.14470390E+00 0.10456505E+03</pdfrwt>
<pdfrwt beam="2">  1       -2 0.19344552E-02 0.10456505E+03</pdfrwt>
<totfact> 0.21625220E+04</totfact>
</mgrwt>
</event>
<event>
 8    1  0.6836165E-004  0.9365653E+02  0.7546771E-02  0.1295236E+00
          1   -1    0    0  501    0  0.00000000000E+00  0.00000000000E+00  0.14037620276E+03  0.14037620276E+03  0.00000000000E+00 0. -1.
         -1   -1    0    0    0  501 -0.00000000000E+00 -0.00000000000E+00 -0.92512144370E+02  0.92512144370E+02  0.00000000000E+00 0.  1.
         23    2    1    2    0    0 -0.10886162426E+02 -0.70655541543E+01  0.91380444402E+02  0.12961579054E+03  0.91002400789E+02 0.  0.
         23    2    1    2    0    0  0.10886162426E+02  0.70655541543E+01 -0.43516386013E+02  0.10327255659E+03  0.92752975723E+02 0.  0.
          5    1    4    4  502    0  0.29488308943E+02 -0.18197091150E+02  0.13936788704E+02  0.37643307108E+02  0.47000000000E+01 0. -1.
         -5    1    4    4    0  502 -0.18602146516E+02  0.25262645305E+02 -0.57453174717E+02  0.65629249485E+02  0.47000000000E+01 0.  1.
          5    1    3    3  503    0  0.29225279816E+02 -0.42273544071E+01  0.25568058006E+00  0.29902221960E+02  0.47000000000E+01 0. -1.
         -5    1    3    3    0  503 -0.40111442242E+02 -0.28381997472E+01  0.91124763822E+02  0.99713568576E+02  0.47000000000E+01 0.  1.
<mgrwt>
<rscale>  0 0.93220145E+02</rscale>
<asrwt>0</asrwt>
<pdfrwt beam="1">  1        1 0.21596339E-01 0.93656527E+02</pdfrwt>
<pdfrwt beam="2">  1       -1 0.14232638E-01 0.93656527E+02</pdfrwt>
<totfact> 0.74265350E+03</totfact>
</mgrwt>
</event>
<event>
 8    1  0.6836165E-004  0.9354587E+02  0.7546771E-02  0.1296232E+00
          1   -1    0    0  501    0  0.00000000000E+00  0.00000000000E+00  0.27940051627E+03  0.27940051627E+03  0.00000000000E+00 0. -1.
         -1   -1    0    0    0  501 -0.00000000000E+00 -0.00000000000E+00 -0.32171630308E+02  0.32171630308E+02  0.00000000000E+00 0.  1.
         23    2    1    2    0    0  0.32750321078E+01  0.64112298397E+01  0.88217188675E+02  0.12858111191E+03  0.93268431202E+02 0.  0.
         23    2    1    2    0    0 -0.32750321078E+01 -0.64112298397E+01  0.15901169729E+03  0.18299103467E+03  0.90272748886E+02 0.  0.
          5    1    3    3  502    0  0.19253146898E+02  0.43516251975E+02  0.26503246493E+02  0.54670466672E+02  0.47000000000E+01 0. -1.
         -5    1    3    3    0  502 -0.15978114791E+02 -0.37105022135E+02  0.61713942182E+02  0.73910645238E+02  0.47000000000E+01 0.  1.
          5    1    4    4  503    0  0.23446867023E+02 -0.80985328492E+00  0.15271785091E+03  0.15458086370E+03  0.47000000000E+01 0. -1.
         -5    1    4    4    0  503 -0.26721899130E+02 -0.56013765548E+01  0.62938463824E+01  0.28410170973E+02  0.47000000000E+01 0.  1.
<mgrwt>
<rscale>  0 0.92790136E+02</rscale>
<asrwt>0</asrwt>
<pdfrwt beam="1">  1        1 0.42984693E-01 0.93545871E+02</pdfrwt>
<pdfrwt beam="2">  1       -1 0.49494818E-02 0.93545871E+02</pdfrwt>
<totfact> 0.15509755E+04</totfact>
</mgrwt>
</event>
<event>
 8    1  0.6836165E-004  0.1019836E+03  0.7546771E-02  0.1277127E+00
         -2   -1    0    0    0  501 -0.00000000000E+00  0.00000000000E+00  0.34749530452E+03  0.34749530452E+03  0.00000000000E+00 0.  1.
          2   -1    0    0  501    0  0.00000000000E+00 -0.00000000000E+00 -0.29742267597E+02  0.29742267597E+02  0.00000000000E+00 0. -1.
         23    2    1    2    0    0 -0.58669677327E+01  0.42943008106E+02  0.18067951650E+03  0.20747467803E+03  0.92315389200E+02 0.  0.
         23    2    1    2    0    0  0.58669677327E+01 -0.42943008106E+02  0.13707352042E+03  0.16976289409E+03  0.90287136149E+02 0.  0.
          5    1    4    4  502    0 -0.28822591516E+02  0.13005763551E+02  0.62341991129E+02  0.70060727409E+02  0.47000000000E+01 0. -1.
         -5    1    3    3    0  503  0.26710098715E+02 -0.16952077095E+02  0.41249851190E+02  0.52196192528E+02  0.47000000000E+01 0.  1.
          5    1    3    3  503    0 -0.32577066448E+02  0.59895085201E+02  0.13942966531E+03  0.15527848550E+03  0.47000000000E+01 0. -1.
         -5    1    4    4    0  502  0.34689559248E+02 -0.55948771656E+02  0.74731529296E+02  0.99702166685E+02  0.47000000000E+01 0.  1.
<mgrwt>
<rscale>  0 0.10152241E+03</rscale>
<asrwt>0</asrwt>
<pdfrwt beam="1">  1        2 0.45757337E-02 0.10198360E+03</pdfrwt>
<pdfrwt beam="2">  1       -2 0.53460813E-01 0.10198360E+03</pdfrwt>
<totfact> 0.54798947E+03</totfact>
</mgrwt>
</event>
<event>
 8    1  0.6836165E-004  0.9584653E+02  0.7546771E-02  0.1289562E+00
         -3   -1    0    0    0  501 -0.00000000000E+00  0.00000000000E+00  0.14686719130E+02  0.14686719130E+02  0.00000000000E+00 0.  1.
          3   -1    0    0  501    0  0.00000000000E+00 -0.00000000000E+00 -0.75917801689E+03  0.75917801689E+03  0.00000000000E+00 0. -1.
         23    2    1    2    0    0 -0.26255031011E+02 -0.86008398252E+01 -0.53578698868E+03  0.54420401866E+03  0.91252482616E+02 0.  0.
         23    2    1    2    0    0  0.26255031011E+02  0.86008398252E+01 -0.20870430908E+03  0.22966071737E+03  0.91778294671E+02 0.  0.
          5    1    4    4  502    0 -0.15606779395E+02 -0.20648811869E+02 -0.14742319097E+03  0.14975190226E+03  0.47000000000E+01 0. -1.
         -5    1    3    3    0  503 -0.35356042195E+02  0.29738604857E+02 -0.40148273171E+03  0.40415950837E+03  0.47000000000E+01 0.  1.
          5    1    3    3  503    0  0.91010111846E+01 -0.38339444682E+02 -0.13430425697E+03  0.14004451029E+03  0.47000000000E+01 0. -1.
         -5    1    4    4    0  502  0.41861810405E+02  0.29249651694E+02 -0.61281118113E+02  0.79908815107E+02  0.47000000000E+01 0.  1.
<mgrwt>
<rscale>  0 0.95720434E+02</rscale>
<asrwt>0</asrwt>
<pdfrwt beam="1">  1        3 0.11679670E+00 0.95846526E+02</pdfrwt>
<pdfrwt beam="2">  1       -3 0.22594938E-02 0.95846526E+02</pdfrwt>
<totfact> 0.10861126E+03</totfact>
</mgrwt>
</event>
<event>
 8    1  0.6836165E-004  0.1033057E+03  0.7546771E-02  0.1274734E+00
          1   -1    0    0  501    0  0.00000000000E+00  0.00000000000E+00  0.65760508527E+03  0.65760508527E+03  0.00000000000E+00 0. -1.
         -1   -1    0    0    0  501 -0.00000000000E+00 -0.00000000000E+00 -0.25265630878E+02  0.25265630878E+02  0.00000000000E+00 0.  1.
         23    2    1    2    0    0 -0.17569099029E+02 -0.39755064912E+02  0.52224337938E+03  0.53189649581E+03  0.91030744891E+02 0.  0.
         23    2    1    2    0    0  0.17569099029E+02  0.39755064912E+02  0.11009607501E+03  0.15097422034E+03  0.93717293220E+02 0.  0.
          5    1    3    3  502    0 -0.45717166921E+02 -0.38142231905E+02  0.45396181210E+03  0.45787367914E+03  0.47000000000E+01 0. -1.
         -5    1    3    3    0  502  0.28148067892E+02 -0.16128330068E+01  0.68281567284E+02  0.74022816666E+02  0.47000000000E+01 0.  1.
          5    1    4    4  503    0  0.54527497853E+02  0.26966863352E+02  0.48869610975E+02  0.78171533297E+02  0.47000000000E+01 0. -1.
         -5    1    4    4    0  503 -0.36958398824E+02  0.12788201560E+02  0.61226464037E+02  0.72802687046E+02  0.47000000000E+01 0.  1.
<mgrwt>
<rscale>  0 0.10269256E+03</rscale>
<asrwt>0</asrwt>
<pdfrwt beam="1">  1        1 0.10117000E+00 0.10330571E+03</pdfrwt>
<pdfrwt beam="2">  1       -1 0.38870206E-02 0.10330571E+03</pdfrwt>
<totfact> 0.74902361E+03</totfact>
</mgrwt>
</event>
<event>
 8    1  0.6836165E-004  0.1054550E+03  0.7546771E-02  0.1271212E+00
          2   -1    0    0  501    0  0.00000000000E+00  0.00000000000E+00  0.59095700139E+03  0.59095700139E+03  0.00000000000E+00 0. -1.
         -2   -1    0    0    0  501 -0.00000000000E+00 -0.00000000000E+00 -0.18657105901E+02  0.18657105901E+02  0.00000000000E+00 0.  1.
         23    2    1    2    0    0  0.36931965858E+02 -0.25092562616E+02  0.23958517763E+03  0.26176672970E+03  0.95536153558E+02 0.  0.
         23    2    1    2    0    0 -0.36931965858E+02  0.25092562616E+02  0.33271471786E+03  0.34784737759E+03  0.91132364267E+02 0.  0.
          5    1    4    4  502    0 -0.64030848308E+02  0.16766751636E+01  0.18697160654E+03  0.19769479616E+03  0.47000000000E+01 0. -1.
         -5    1    3    3    0  503  0.11536442423E+02  0.29333439184E+02  0.15301320240E+03  0.15629673787E+03  0.47000000000E+01 0.  1.
          5    1    3    3  503    0  0.25395523435E+02 -0.54426001800E+02  0.86571975230E+02  0.10546999184E+03  0.47000000000E+01 0. -1.
         -5    1    4    4    0  502  0.27098882450E+02  0.23415887452E+02  0.14574311132E+03  0.15015258144E+03  0.47000000000E+01 0.  1.
<mgrwt>
<rscale>  0 0.10444757E+03</rscale>
<asrwt>0</asrwt>
<pdfrwt beam="1">  1        2 0.90916447E-01 0.10545503E+03</pdfrwt>
<pdfrwt beam="2">  1       -2 0.28703244E-02 0.10545503E+03</pdfrwt>
<totfact> 0.21398097E+04</totfact>
</mgrwt>
</event>
<event>
 8    1  0.6836165E-004  0.1250846E+03  0.7546771E-02  0.1236991E+00
          1   -1    0    0  501    0  0.00000000000E+00  0.00000000000E+00  0.76885747648E+03  0.76885747648E+03  0.00000000000E+00 0. -1.
         -1   -1    0    0    0  501 -0.00000000000E+00 -0.00000000000E+00 -0.20150985977E+02  0.20150985977E+02  0.00000000000E+00 0.  1.
         23    2    1    2    0    0 -0.45438971379E+01 -0.83966466318E+02  0.31226014895E+03  0.33638157301E+03  0.92602092691E+02 0.  0.
         23    2    1    2    0    0  0.45438971379E+01  0.83966466318E+02  0.43644634156E+03  0.45262688945E+03  0.85525888063E+02 0.  0.
          5    1    3    3  502    0 -0.15575466449E+02 -0.59771472759E+02  0.30068878609E+03  0.30700335534E+03  0.47000000000E+01 0. -1.
         -5    1    4    4    0  503 -0.37985506557E+02  0.48686175559E+02  0.18337301001E+03  0.19354842598E+03  0.47000000000E+01 0.  1.
          5    1    4    4  503    0  0.42529403695E+02  0.35280290758E+02  0.25307333155E+03  0.25907846347E+03  0.47000000000E+01 0. -1.
         -5    1    3    3    0  502  0.11031569311E+02 -0.24194993558E+02  0.11571362856E+02  0.29378217664E+02  0.47000000000E+01 0.  1.
<mgrwt>
<rscale>  0 0.12377823E+03</rscale>
<asrwt>0</asrwt>
<pdfrwt beam="1">  1        1 0.11828574E+00 0.12508462E+03</pdfrwt>
<pdfrwt beam="2">  1       -1 0.31001523E-02 0.12508462E+03</pdfrwt>
<totfact> 0.84280712E+03</totfact>
</mgrwt>
</event>
<event>
 8    1  0.6836165E-004  0.1390399E+03  0.7546771E-02  0.1214933E+00
         -1   -1    0    0    0  501 -0.00000000000E+00  0.00000000000E+00  0.60810946368E+02  0.60810946368E+02  0.00000000000E+00 0.  1.
          1   -1    0    0  501    0  0.00000000000E+00 -0.00000000000E+00 -0.31610369106E+03  0.31610369106E+03  0.00000000000E+00 0. -1.
         23    2    1    2    0    0 -0.10059306262E+03  0.30923391129E+02 -0.13334391026E+03  0.19264651624E+03  0.90867273806E+02 0.  0.
         23    2    1    2    0    0  0.10059306262E+03 -0.30923391129E+02 -0.12194883443E+03  0.18426812119E+03  0.89487439905E+02 0.  0.
          5    1    3    3  502    0 -0.42056236723E+02 -0.30596333518E+02 -0.66020707045E+02  0.84176519474E+02  0.47000000000E+01 0. -1.
         -5    1    3    3    0  502 -0.58536825900E+02  0.61519724647E+02 -0.67323203215E+02  0.10846999677E+03  0.47000000000E+01 0.  1.
          5    1    4    4  503    0  0.59623158705E+02 -0.49594364051E+02 -0.11452822056E+03  0.13839553932E+03  0.47000000000E+01 0. -1.
         -5    1    4    4    0  503  0.40969903918E+02  0.18670972923E+02 -0.74206138719E+01  0.45872581868E+02  0.47000000000E+01 0.  1.
<mgrwt>
<rscale>  0 0.13881486E+03</rscale>
<asrwt>0</asrwt>
<pdfrwt beam="1">  1        1 0.48631337E-01 0.13903986E+03</pdfrwt>
<pdfrwt beam="2">  1       -1 0.93555302E-02 0.13903986E+03</pdfrwt>
<totfact> 0.53176770E+03</totfact>
</mgrwt>
</event>
<event>
 8    1  0.6836165E-004  0.1083851E+03  0.7546771E-02  0.1264277E+00
          1   -1    0    0  501    0  0.00000000000E+00  0.00000000000E+00  0.79554511907E+03  0.79554511907E+03  0.00000000000E+00 0. -1.
         -1   -1    0    0    0  501 -0.00000000000E+00 -0.00000000000E+00 -0.15120459324E+02  0.15120459324E+02  0.00000000000E+00 0.  1.
         23    2    1    2    0    0  0.36176027188E+02  0.38586911704E+02  0.31541837056E+03  0.33352074507E+03  0.94602770599E+02 0.  0.
         23    2    1    2    0    0 -0.36176027188E+02 -0.38586911704E+02  0.46500628919E+03  0.47714483333E+03  0.92944544166E+02 0.  0.
          5    1    4    4  502    0 -0.48026451462E+02 -0.61596263077E+02  0.38673563990E+03  0.39457215415E+03  0.47000000000E+01 0. -1.
         -5    1    4    4    0  502  0.11850424274E+02  0.23009351374E+02  0.78270649289E+02  0.82572679175E+02  0.47000000000E+01 0.  1.
          5    1    3    3  503    0 -0.32159059984E+02  0.15806545023E+02  0.10009071046E+03  0.10641565827E+03  0.47000000000E+01 0. -1.
         -5    1    3    3    0  503  0.68335087172E+02  0.22780366681E+02  0.21532766010E+03  0.22710508679E+03  0.47000000000E+01 0.  1.
<mgrwt>
<rscale>  0 0.10802225E+03</rscale>
<asrwt>0</asrwt>
<pdfrwt beam="1">  1        1 0.12239152E+00 0.10838514E+03</pdfrwt>
<pdfrwt beam="2">  1       -1 0.23262251E-02 0.10838514E+03</pdfrwt>
<totfact> 0.12021934E+04</totfact>
</mgrwt>
</event>
<event>
 8    1  0.6836165E-004  0.9542385E+02  0.7546771E-02  0.1290322E+00
          1   -1    0    0  501    0  0.00000000000E+00  0.00000000000E+00  0.92741118242E+02  0.92741118242E+02  0.00000000000E+00 0. -1.
         -1   -1    0    0    0  501 -0.00000000000E+00 -0.00000000000E+00 -0.11187322741E+03  0.11187322741E+03  0.00000000000E+00 0.  1.
         23    2    1    2    0    0 -0.23706746091E+02 -0.24896311530E+02 -0.45595448962E+02  0.10575753220E+03  0.89016147482E+02 0.  0.
         23    2    1    2    0    0  0.23706746091E+02  0.24896311530E+02  0.26463339794E+02  0.98856813452E+02  0.88828627564E+02 0.  0.
          5    1    4    4  502    0  0.52609727265E+02  0.13669628895E+02 -0.45525376402E+01  0.54749043425E+02  0.47000000000E+01 0.  1.
         -5    1    3    3    0  503  0.14229217643E+02  0.26577818427E+02 -0.84536092981E+01  0.31660773478E+02  0.47000000000E+01 0.  1.
          5    1    3    3  503    0 -0.37935963734E+02 -0.51474129957E+02 -0.37141839664E+02  0.74096758720E+02  0.47000000000E+01 0. -1.
         -5    1    4    4    0  502 -0.28902981174E+02  0.11226682635E+02  0.31015877435E+02  0.44107770027E+02  0.47000000000E+01 0. -1.
<mgrwt>
<rscale>  0 0.95380091E+02</rscale>
<asrwt>0</asrwt>
<pdfrwt beam="1">  1        1 0.14267864E-01 0.95423847E+02</pdfrwt>
<pdfrwt beam="2">  1       -1 0.17211266E-01 0.95423847E+02</pdfrwt>
<totfact> 0.93576366E+03</totfact>
</mgrwt>
</event>
<event>
 8    1  0.6836165E-004  0.9417332E+02  0.7546771E-02  0.1294297E+00
          1   -1    0    0  501    0  0.00000000000E+00  0.00000000000E+00  0.34584257713E+03  0.34584257713E+03  0.00000000000E+00 0. -1.
         -1   -1    0    0    0  501 -0.00000000000E+00 -0.00000000000E+00 -0.25840154474E+02  0.25840154474E+02  0.00000000000E+00 0.  1.
         23    2    1    2    0    0 -0.14901413073E+02 -0.82090116074E+01  0.19053276984E+03  0.21158587064E+03  0.90423472003E+02 0.  0.
         23    2    1    2    0    0  0.14901413073E+02  0.82090116074E+01  0.12946965282E+03  0.16009686097E+03  0.92623830123E+02 0.  0.
          5    1    3    3  502    0  0.12103002574E+02 -0.16919845641E+02  0.17952930315E+03  0.18079166058E+03  0.47000000000E+01 0. -1.
         -5    1    4    4    0  503 -0.24887635570E+02  0.26580016044E+02  0.10139741809E+03  0.10783977954E+03  0.47000000000E+01 0.  1.
          5    1    4    4  503    0  0.39789048643E+02 -0.18371004437E+02  0.28072234732E+02  0.52257081422E+02  0.47000000000E+01 0. -1.
         -5    1    3    3    0  502 -0.27004415647E+02  0.87108340335E+01  0.11003466696E+02  0.30794210062E+02  0.47000000000E+01 0.  1.
<mgrwt>
<rscale>  0 0.93627772E+02</rscale>
<asrwt>0</asrwt>
<pdfrwt beam="1">  1        1 0.53206547E-01 0.94173318E+02</pdfrwt>
<pdfrwt beam="2">  1       -1 0.39754086E-02 0.94173318E+02</pdfrwt>
<totfact> 0.16453688E+04</totfact>
</mgrwt>
</event>
<event>
 8    1  0.1228130E-003  0.1214282E+03  0.7546771E-02  0.1241160E+00
          2   -1    0    0  501    0  0.00000000000E+00  0.00000000000E+00  0.65606543721E+03  0.65606543721E+03  0.00000000000E+00 0. -1.
         -2   -1    0    0    0  501 -0.00000000000E+00 -0.00000000000E+00 -0.59264972637E+02  0.59264972637E+02  0.00000000000E+00 0.  1.
         23    2    1    2    0    0  0.41550232411E+02  0.67091750677E+02  0.58043997737E+03  0.59280503080E+03  0.90991825948E+02 0.  0.
         23    2    1    2    0    0 -0.41550232411E+02 -0.67091750677E+02  0.16360487199E+02  0.12252537904E+03  0.92288017349E+02 0.  0.
          5    1    4    4  502    0 -0.65283380646E+01 -0.22760208827E+02  0.50764186631E+02  0.56211555290E+02  0.47000000000E+01 0. -1.
         -5    1    4    4    0  502 -0.35021894346E+02 -0.44331541850E+02 -0.34403699432E+02  0.66313823754E+02  0.47000000000E+01 0.  1.
          5    1    3    3  503    0  0.69851455194E+02  0.49016020404E+02  0.37762747493E+03  0.38717747335E+03  0.47000000000E+01 0. -1.
         -5    1    3    3    0  503 -0.28301222783E+02  0.18075730273E+02  0.20281250244E+03  0.20562755744E+03  0.47000000000E+01 0.  1.
<mgrwt>
<rscale>  0 0.12118189E+03</rscale>
<asrwt>0</asrwt>
<pdfrwt beam="1">  1        2 0.10093314E+00 0.12142818E+03</pdfrwt>
<pdfrwt beam="2">  1       -2 0.91176885E-02 0.12142818E+03</pdfrwt>
<totfact> 0.33882037E+03</totfact>
</mgrwt>
</event>
<event>
 8    1  0.6836165E-004  0.9007575E+02  0.7546771E-02  0.1306056E+00
         -1   -1    0    0    0  501 -0.00000000000E+00  0.00000000000E+00  0.56371269493E+02  0.56371269493E+02  0.00000000000E+00 0.  1.
          1   -1    0    0  501    0  0.00000000000E+00 -0.00000000000E+00 -0.20177693485E+03  0.20177693485E+03  0.00000000000E+00 0. -1.
         23    2    1    2    0    0 -0.36309344487E+01  0.35054697268E+01  0.28137768235E+01  0.84704716348E+02  0.84507393929E+02 0.  0.
         23    2    1    2    0    0  0.36309344487E+01 -0.35054697268E+01 -0.14821944218E+03  0.17344348799E+03  0.89934245336E+02 0.  0.
          5    1    4    4  502    0  0.26200742273E+02 -0.36420684241E+01 -0.14796836185E+03  0.15038773110E+03  0.47000000000E+01 0. -1.
         -5    1    4    4    0  502 -0.22569807824E+02  0.13659869731E+00 -0.25108032995E+00  0.23055756889E+02  0.47000000000E+01 0.  1.
          5    1    3    3  503    0  0.28426398178E+02 -0.22509692691E+02  0.17628854603E+02  0.40590798132E+02  0.47000000000E+01 0. -1.
         -5    1    3    3    0  503 -0.32057332627E+02  0.26015162418E+02 -0.14815077779E+02  0.44113918216E+02  0.47000000000E+01 0.  1.
<mgrwt>
<rscale>  0 0.88689636E+02</rscale>
<asrwt>0</asrwt>
<pdfrwt beam="1">  1        1 0.31042605E-01 0.90075749E+02</pdfrwt>
<pdfrwt beam="2">  1       -1 0.86725031E-02 0.90075749E+02</pdfrwt>
<totfact> 0.10031415E+04</totfact>
</mgrwt>
</event>
<event>
 8    1  0.6836165E-004  0.1589880E+03  0.7546771E-02  0.1191639E+00
         -3   -1    0    0    0  501 -0.00000000000E+00  0.00000000000E+00  0.28131692895E+03  0.28131692895E+03  0.00000000000E+00 0.  1.
          3   -1    0    0  501    0  0.00000000000E+00 -0.00000000000E+00 -0.86407891013E+02  0.86407891013E+02  0.00000000000E+00 0. -1.
         23    2    1    2    0    0  0.40288632546E+02  0.11958056547E+03  0.97607507643E+02  0.18132536218E+03  0.86191506964E+02 0.  0.
         23    2    1    2    0    0 -0.40288632546E+02 -0.11958056547E+03  0.97301530294E+02  0.18639945778E+03  0.96718584115E+02 0.  0.
          5    1    3    3  502    0  0.39087274738E+02  0.68500438282E+01  0.26732219170E+02  0.48077434298E+02  0.47000000000E+01 0. -1.
         -5    1    4    4    0  503 -0.89738796957E+01 -0.93102874381E+02  0.10879557446E+03  0.14355223007E+03  0.47000000000E+01 0.  1.
          5    1    4    4  503    0 -0.31314752851E+02 -0.26477691086E+02 -0.11494044168E+02  0.42847227713E+02  0.47000000000E+01 0. -1.
         -5    1    3    3    0  502  0.12013578078E+01  0.11273052164E+03  0.70875288473E+02  0.13324792789E+03  0.47000000000E+01 0.  1.
<mgrwt>
<rscale>  0 0.15742108E+03</rscale>
<asrwt>0</asrwt>
<pdfrwt beam="1">  1        3 0.13293522E-01 0.15898796E+03</pdfrwt>
<pdfrwt beam="2">  1       -3 0.43279527E-01 0.15898796E+03</pdfrwt>
<totfact> 0.57604583E+02</totfact>
</mgrwt>
</event>
<event>
 8    1  0.6836165E-004  0.1517825E+03  0.7546771E-02  0.1199566E+00
          2   -1    0    0  501    0  0.00000000000E+00  0.00000000000E+00  0.91977165773E+03  0.91977165773E+03  0.00000000000E+00 0. -1.
         -2   -1    0    0    0  501 -0.00000000000E+00 -0.00000000000E+00 -0.25504570627E+02  0.25504570627E+02  0.00000000000E+00 0.  1.
         23    2    1    2    0    0  0.11068718308E+03 -0.43890647348E+02  0.35339674994E+03  0.38461304947E+03  0.94127007440E+02 0.  0.
         23    2    1    2    0    0 -0.11068718308E+03  0.43890647348E+02  0.54087033716E+03  0.56066317889E+03  0.87318022866E+02 0.  0.
          5    1    3    3  502    0 -0.10980582603E+02 -0.22239017390E+02  0.35947863072E+02  0.43925914312E+02  0.47000000000E+01 0. -1.
         -5    1    4    4    0  503 -0.42871531507E+02 -0.51404645063E+01  0.69916979711E+02  0.82309578063E+02  0.47000000000E+01 0.  1.
          5    1    4    4  503    0 -0.67815651573E+02  0.49031111854E+02  0.47095335745E+03  0.47835360083E+03  0.47000000000E+01 0. -1.
         -5    1    3    3    0  502  0.12166776568E+03 -0.21651629958E+02  0.31744888687E+03  0.34068713516E+03  0.47000000000E+01 0.  1.
<mgrwt>
<rscale>  0 0.15074037E+03</rscale>
<asrwt>0</asrwt>
<pdfrwt beam="1">  1        2 0.14150331E+00 0.15178253E+03</pdfrwt>
<pdfrwt beam="2">  1       -2 0.39237808E-02 0.15178253E+03</pdfrwt>
<totfact> 0.81110671E+03</totfact>
</mgrwt>
</event>
<event>
 8    1  0.6836165E-004  0.1017706E+03  0.7546771E-02  0.1278251E+00
         -1   -1    0    0    0  501 -0.00000000000E+00  0.00000000000E+00  0.13309198202E+02  0.13309198202E+02  0.00000000000E+00 0.  1.
          1   -1    0    0  501    0  0.00000000000E+00 -0.00000000000E+00 -0.86455270985E+03  0.86455270985E+03  0.00000000000E+00 0. -1.
         23    2    1    2    0    0  0.36387840954E+02  0.12209220103E+02 -0.27480259186E+03  0.29304217241E+03  0.94255558409E+02 0.  0.
         23    2    1    2    0    0 -0.36387840954E+02 -0.12209220103E+02 -0.57644091979E+03  0.58481973565E+03  0.90867206237E+02 0.  0.
          5    1    3    3  502    0 -0.11963906263E+02  0.42297430549E+02 -0.10681184579E+03  0.11559873738E+03  0.47000000000E+01 0. -1.
         -5    1    3    3    0  502  0.48351747217E+02 -0.30088210446E+02 -0.16799074607E+03  0.17744343502E+03  0.47000000000E+01 0.  1.
          5    1    4    4  503    0 -0.14289603924E+02 -0.51312940721E+02 -0.31602411162E+03  0.32051605231E+03  0.47000000000E+01 0. -1.
         -5    1    4    4    0  503 -0.22098237029E+02  0.39103720618E+02 -0.26041680817E+03  0.26430368334E+03  0.47000000000E+01 0.  1.
<mgrwt>
<rscale>  0 0.10097892E+03</rscale>
<asrwt>0</asrwt>
<pdfrwt beam="1">  1        1 0.13300817E+00 0.10177058E+03</pdfrwt>
<pdfrwt beam="2">  1       -1 0.20475680E-02 0.10177058E+03</pdfrwt>
<totfact> 0.12668055E+04</totfact>
</mgrwt>
</event>
<event>
 8    1  0.6836165E-004  0.9874131E+02  0.7546771E-02  0.1284223E+00
         -3   -1    0    0    0  501 -0.00000000000E+00  0.00000000000E+00  0.25951312345E+02  0.25951312345E+02  0.00000000000E+00 0.  1.
          3   -1    0    0  501    0  0.00000000000E+00 -0.00000000000E+00 -0.71991627783E+03  0.71991627783E+03  0.00000000000E+00 0. -1.
         23    2    1    2    0    0  0.18659367680E+02  0.25878046674E+02 -0.83744187377E+02  0.12770964501E+03  0.90988016836E+02 0.  0.
         23    2    1    2    0    0 -0.18659367680E+02 -0.25878046674E+02 -0.61022077811E+03  0.61815794516E+03  0.93445180888E+02 0.  0.
          5    1    4    4  502    0 -0.48239362227E+02 -0.36782574749E+02 -0.49078028213E+03  0.49453753063E+03  0.47000000000E+01 0. -1.
         -5    1    4    4    0  502  0.29579994547E+02  0.10904528075E+02 -0.11944049597E+03  0.12362041453E+03  0.47000000000E+01 0.  1.
          5    1    3    3  503    0  0.49895273732E+02  0.18780257745E+02 -0.78355738032E+02  0.94889135861E+02  0.47000000000E+01 0. -1.
         -5    1    3    3    0  503 -0.31235906052E+02  0.70977889293E+01 -0.53884493450E+01  0.32820509151E+02  0.47000000000E+01 0.  1.
<mgrwt>
<rscale>  0 0.98155598E+02</rscale>
<asrwt>0</asrwt>
<pdfrwt beam="1">  1        3 0.11075634E+00 0.98741314E+02</pdfrwt>
<pdfrwt beam="2">  1       -3 0.39925098E-02 0.98741314E+02</pdfrwt>
<totfact> 0.51503486E+02</totfact>
</mgrwt>
</event>
<event>
 8    1  0.6836165E-004  0.1196972E+03  0.7546771E-02  0.1244707E+00
          2   -1    0    0  501    0  0.00000000000E+00  0.00000000000E+00  0.29601043132E+03  0.29601043132E+03  0.00000000000E+00 0. -1.
         -2   -1    0    0    0  501 -0.00000000000E+00 -0.00000000000E+00 -0.55092756327E+02  0.55092756327E+02  0.00000000000E+00 0.  1.
         23    2    1    2    0    0 -0.79363545964E+02  0.10132476479E+02  0.18748172116E+03  0.22243384914E+03  0.89029107422E+02 0.  0.
         23    2    1    2    0    0  0.79363545964E+02 -0.10132476479E+02  0.53435953831E+02  0.12866933850E+03  0.85435109883E+02 0.  0.
          5    1    3    3  502    0 -0.20206287425E+02  0.37256656339E+02  0.30488430377E+02  0.52421244547E+02  0.47000000000E+01 0. -1.
         -5    1    4    4    0  503  0.48761372788E+02 -0.20874610887E+02 -0.12802854045E+02  0.54766996700E+02  0.47000000000E+01 0.  1.
          5    1    4    4  503    0  0.30602173176E+02  0.10742134408E+02  0.66238807876E+02  0.73902341801E+02  0.47000000000E+01 0. -1.
         -5    1    3    3    0  502 -0.59157258539E+02 -0.27124179860E+02  0.15699329078E+03  0.17001260459E+03  0.47000000000E+01 0.  1.
<mgrwt>
<rscale>  0 0.11902951E+03</rscale>
<asrwt>0</asrwt>
<pdfrwt beam="1">  1        2 0.45540065E-01 0.11969721E+03</pdfrwt>
<pdfrwt beam="2">  1       -2 0.84758088E-02 0.11969721E+03</pdfrwt>
<totfact> 0.89925544E+03</totfact>
</mgrwt>
</event>
<event>
 8    1  0.6836165E-004  0.1145070E+03  0.7546771E-02  0.1265470E+00
         -1   -1    0    0    0  501 -0.00000000000E+00  0.00000000000E+00  0.75423259988E+02  0.75423259988E+02  0.00000000000E+00 0.  1.
          1   -1    0    0  501    0  0.00000000000E+00 -0.00000000000E+00 -0.18924722354E+03  0.18924722354E+03  0.00000000000E+00 0. -1.
         23    2    1    2    0    0 -0.86314719917E+01 -0.57024501182E+01  0.17626966876E+02  0.90339759538E+02  0.87997397382E+02 0.  0.
         23    2    1    2    0    0  0.86314719917E+01  0.57024501182E+01 -0.13145093043E+03  0.17433072399E+03  0.11403873890E+03 0.  0.
          5    1    4    4  502    0  0.35512882689E+02 -0.10960239274E+02 -0.13686690737E+03  0.14190113465E+03  0.47000000000E+01 0. -1.
         -5    1    3    3    0  503 -0.54120200574E+01 -0.29095199649E+02  0.44886821542E+02  0.53969781840E+02  0.47000000000E+01 0.  1.
          5    1    3    3  503    0 -0.32194519343E+01  0.23392749531E+02 -0.27259854666E+02  0.36369977698E+02  0.47000000000E+01 0. -1.
         -5    1    4    4    0  502 -0.26881410697E+02  0.16662689392E+02  0.54159769389E+01  0.32429589344E+02  0.47000000000E+01 0.  1.
<mgrwt>
<rscale>  0 0.10739564E+03</rscale>
<asrwt>0</asrwt>
<pdfrwt beam="1">  1        1 0.29114957E-01 0.11450701E+03</pdfrwt>
<pdfrwt beam="2">  1       -1 0.11603578E-01 0.11450701E+03</pdfrwt>
<totfact> 0.71228925E+03</totfact>
</mgrwt>
</event>
<event>
 8    1  0.6836165E-004  0.1282270E+03  0.7546771E-02  0.1230292E+00
         -1   -1    0    0    0  501 -0.00000000000E+00  0.00000000000E+00  0.13572524864E+02  0.13572524864E+02  0.00000000000E+00 0.  1.
          1   -1    0    0  501    0  0.00000000000E+00 -0.00000000000E+00 -0.13513132969E+04  0.13513132969E+04  0.00000000000E+00 0. -1.
         23    2    1    2    0    0  0.22383001868E+02  0.85918675772E+02 -0.44689836877E+03  0.46493044333E+03  0.92515660887E+02 0.  0.
         23    2    1    2    0    0 -0.22383001868E+02 -0.85918675772E+02 -0.89084240330E+03  0.89995537846E+03  0.91850302631E+02 0.  0.
          5    1    3    3  502    0 -0.55509043687E+01  0.56708390524E+02 -0.39433629851E+03  0.39845935855E+03  0.47000000000E+01 0. -1.
         -5    1    4    4    0  503  0.17999270833E+02  0.11597325889E+02 -0.13610627276E+03  0.13786036124E+03  0.47000000000E+01 0.  1.
          5    1    4    4  503    0 -0.40382272701E+02 -0.97516001662E+02 -0.75473613054E+03  0.76209501722E+03  0.47000000000E+01 0. -1.
         -5    1    3    3    0  502  0.27933906237E+02  0.29210285249E+02 -0.52562070260E+02  0.66471084781E+02  0.47000000000E+01 0.  1.
<mgrwt>
<rscale>  0 0.12810703E+03</rscale>
<asrwt>0</asrwt>
<pdfrwt beam="1">  1        1 0.20789440E+00 0.12822701E+03</pdfrwt>
<pdfrwt beam="2">  1       -1 0.20880802E-02 0.12822701E+03</pdfrwt>
<totfact> 0.56644603E+03</totfact>
</mgrwt>
</event>
<event>
 8    1  0.6836165E-004  0.1000349E+03  0.7546771E-02  0.1280390E+00
          1   -1    0    0  501    0  0.00000000000E+00  0.00000000000E+00  0.24367789807E+03  0.24367789807E+03  0.00000000000E+00 0. -1.
         -1   -1    0    0    0  501 -0.00000000000E+00 -0.00000000000E+00 -0.89214477451E+02  0.89214477451E+02  0.00000000000E+00 0.  1.
         23    2    1    2    0    0 -0.32137589516E+02 -0.21617722023E+02 -0.45154238714E+02  0.10975374062E+03  0.92232465762E+02 0.  0.
         23    2    1    2    0    0  0.32137589516E+02  0.21617722023E+02  0.19961765933E+03  0.22313863490E+03  0.91888464475E+02 0.  0.
          5    1    3    3  502    0  0.28440173576E+02 -0.22724867905E+02 -0.29255153359E+02  0.46938439390E+02  0.47000000000E+01 0. -1.
         -5    1    3    3    0  502 -0.60577763092E+02  0.11071458814E+01 -0.15899085355E+02  0.62815301228E+02  0.47000000000E+01 0.  1.
          5    1    4    4  503    0  0.53799795343E+02  0.13207678335E+02  0.18927766060E+03  0.19727387954E+03  0.47000000000E+01 0. -1.
         -5    1    4    4    0  503 -0.21662205828E+02  0.84100436886E+01  0.10339998729E+02  0.25864755361E+02  0.47000000000E+01 0.  1.
<mgrwt>
<rscale>  0 0.99955521E+02</rscale>
<asrwt>0</asrwt>
<pdfrwt beam="1">  1        1 0.37488907E-01 0.10003489E+03</pdfrwt>
<pdfrwt beam="2">  1       -1 0.13725304E-01 0.10003489E+03</pdfrwt>
<totfact> 0.39933427E+03</totfact>
</mgrwt>
</event>
<event>
 8    1  0.6836165E-004  0.1017622E+03  0.7546771E-02  0.1280172E+00
          3   -1    0    0  501    0  0.00000000000E+00  0.00000000000E+00  0.52782177753E+03  0.52782177753E+03  0.00000000000E+00 0. -1.
         -3   -1    0    0    0  501 -0.00000000000E+00 -0.00000000000E+00 -0.19693066021E+03  0.19693066021E+03  0.00000000000E+00 0.  1.
         23    2    1    2    0    0  0.10917289808E+02 -0.19752552072E+02 -0.17908683205E+03  0.20597970260E+03  0.99227989693E+02 0.  0.
         23    2    1    2    0    0 -0.10917289808E+02  0.19752552072E+02  0.50997794937E+03  0.51877273515E+03  0.92402875267E+02 0.  0.
          5    1    3    3  502    0 -0.20767819576E+02  0.14105159556E+02 -0.14745511782E+03  0.14965079227E+03  0.47000000000E+01 0. -1.
         -5    1    4    4    0  503  0.45284077785E+01 -0.36001645724E+02  0.17225414071E+03  0.17609714354E+03  0.47000000000E+01 0.  1.
          5    1    4    4  503    0 -0.15445697586E+02  0.55754197796E+02  0.33772380866E+03  0.34267559160E+03  0.47000000000E+01 0. -1.
         -5    1    3    3    0  502  0.31685109384E+02 -0.33857711629E+02 -0.31631714228E+02  0.56328910325E+02  0.47000000000E+01 0.  1.
<mgrwt>
<rscale>  0 0.10005914E+03</rscale>
<asrwt>0</asrwt>
<pdfrwt beam="1">  1        3 0.81203350E-01 0.10176220E+03</pdfrwt>
<pdfrwt beam="2">  1       -3 0.30297025E-01 0.10176220E+03</pdfrwt>
<totfact> 0.35171415E+01</totfact>
</mgrwt>
</event>
<event>
 8    1  0.6836165E-004  0.9632151E+02  0.7546771E-02  0.1288305E+00
         -1   -1    0    0    0  501 -0.00000000000E+00  0.00000000000E+00  0.24023368924E+03  0.24023368924E+03  0.00000000000E+00 0.  1.
          1   -1    0    0  501    0  0.00000000000E+00 -0.00000000000E+00 -0.12103223261E+03  0.12103223261E+03  0.00000000000E+00 0. -1.
         23    2    1    2    0    0 -0.34423112760E+02 -0.91830162272E+01  0.20871881041E+03  0.22987252109E+03  0.89490533894E+02 0.  0.
         23    2    1    2    0    0  0.34423112760E+02  0.91830162272E+01 -0.89517353776E+02  0.13139340076E+03  0.89339748469E+02 0.  0.
          5    1    4    4  502    0  0.19978024259E+02 -0.39195153398E+02 -0.52243425540E+02  0.68460550797E+02  0.47000000000E+01 0. -1.
         -5    1    4    4    0  502  0.14445088501E+02  0.48378169625E+02 -0.37273928235E+02  0.62932849961E+02  0.47000000000E+01 0.  1.
          5    1    3    3  503    0  0.19572998637E+02 -0.27017311268E+02  0.43135950051E+02  0.54734244953E+02  0.47000000000E+01 0. -1.
         -5    1    3    3    0  503 -0.53996111397E+02  0.17834295040E+02  0.16558286035E+03  0.17513827614E+03  0.47000000000E+01 0.  1.
<mgrwt>
<rscale>  0 0.96286476E+02</rscale>
<asrwt>0</asrwt>
<pdfrwt beam="1">  1        1 0.18620344E-01 0.96321514E+02</pdfrwt>
<pdfrwt beam="2">  1       -1 0.36959029E-01 0.96321514E+02</pdfrwt>
<totfact> 0.19138184E+03</totfact>
</mgrwt>
</event>
<event>
 8    1  0.9007154E-004  0.1129487E+03  0.7546771E-02  0.1261282E+00
         -1   -1    0    0    0  501 -0.00000000000E+00  0.00000000000E+00  0.59918650931E+02  0.59918650931E+02  0.00000000000E+00 0.  1.
          1   -1    0    0  501    0  0.00000000000E+00 -0.00000000000E+00 -0.34959081022E+03  0.34959081022E+03  0.00000000000E+00 0. -1.
         23    2    1    2    0    0  0.37762666373E+02 -0.22550488710E+02 -0.27853966377E+03  0.29601343753E+03  0.90028147771E+02 0.  0.
         23    2    1    2    0    0 -0.37762666373E+02  0.22550488710E+02 -0.11132495512E+02  0.11349602362E+03  0.10403303037E+03 0.  0.
          5    1    4    4  502    0 -0.12834656305E+02 -0.37201090399E+02 -0.25346707174E+02  0.47044607491E+02  0.47000000000E+01 0. -1.
         -5    1    3    3    0  503 -0.31164896897E+01  0.28818749144E+02 -0.48070376547E+02  0.56330133246E+02  0.47000000000E+01 0.  1.
          5    1    3    3  503    0  0.40879156062E+02 -0.51369237854E+02 -0.23046928723E+03  0.23968330428E+03  0.47000000000E+01 0. -1.
         -5    1    4    4    0  502 -0.24928010068E+02  0.59751579109E+02  0.14214211662E+02  0.66451416126E+02  0.47000000000E+01 0.  1.
<mgrwt>
<rscale>  0 0.10961642E+03</rscale>
<asrwt>0</asrwt>
<pdfrwt beam="1">  1        1 0.53783202E-01 0.11294873E+03</pdfrwt>
<pdfrwt beam="2">  1       -1 0.92182539E-02 0.11294873E+03</pdfrwt>
<totfact> 0.47419211E+03</totfact>
</mgrwt>
</event>
<event>
 8    1  0.6836165E-004  0.1060027E+03  0.7546771E-02  0.1273979E+00
         -2   -1    0    0    0  501 -0.00000000000E+00  0.00000000000E+00  0.12754415509E+02  0.12754415509E+02  0.00000000000E+00 0.  1.
          2   -1    0    0  501    0  0.00000000000E+00 -0.00000000000E+00 -0.83912513198E+03  0.83912513198E+03  0.00000000000E+00 0. -1.
         23    2    1    2    0    0 -0.40405370518E+02 -0.33968943044E+02 -0.49445296336E+03  0.50344596701E+03  0.78661462413E+02 0.  0.
         23    2    1    2    0    0  0.40405370518E+02  0.33968943044E+02 -0.33191775312E+03  0.34843358048E+03  0.91924328195E+02 0.  0.
          5    1    3    3  502    0 -0.38034319029E+02  0.17640395343E+02 -0.19247985441E+03  0.19704917489E+03  0.47000000000E+01 0. -1.
         -5    1    4    4    0  503  0.31218247771E+02 -0.26083523788E+02 -0.88663053320E+02  0.97663484635E+02  0.47000000000E+01 0.  1.
          5    1    4    4  503    0  0.91871227469E+01  0.60052466832E+02 -0.24325469980E+03  0.25077009585E+03  0.47000000000E+01 0. -1.
         -5    1    3    3    0  502 -0.23710514890E+01 -0.51609338387E+02 -0.30197310895E+03  0.30639679212E+03  0.47000000000E+01 0.  1.
<mgrwt>
<rscale>  0 0.10306507E+03</rscale>
<asrwt>0</asrwt>
<pdfrwt beam="1">  1        2 0.12909618E+00 0.10600267E+03</pdfrwt>
<pdfrwt beam="2">  1       -2 0.19622177E-02 0.10600267E+03</pdfrwt>
<totfact> 0.24560951E+04</totfact>
</mgrwt>
</event>
<event>
 8    1  0.6836165E-004  0.1166441E+03  0.7546771E-02  0.1248905E+00
         -1   -1    0    0    0  501 -0.00000000000E+00  0.00000000000E+00  0.32042431464E+03  0.32042431464E+03  0.00000000000E+00 0.  1.
          1   -1    0    0  501    0  0.00000000000E+00 -0.00000000000E+00 -0.51447169135E+02  0.51447169135E+02  0.00000000000E+00 0. -1.
         23    2    1    2    0    0  0.38348611567E+02  0.61326736375E+02  0.21298708505E+03  0.24283605033E+03  0.91511006658E+02 0.  0.
         23    2    1    2    0    0 -0.38348611567E+02 -0.61326736375E+02  0.55990060456E+02  0.12903543344E+03  0.91014677995E+02 0.  0.
          5    1    4    4  502    0 -0.53571534126E+02 -0.32400347546E+02 -0.14259269410E+01  0.62799801412E+02  0.47000000000E+01 0. -1.
         -5    1    4    4    0  502  0.15222922559E+02 -0.28926388829E+02  0.57415987397E+02  0.66235632032E+02  0.47000000000E+01 0.  1.
          5    1    3    3  503    0  0.40244529239E+02  0.83951416917E+02  0.16406117059E+03  0.18869451564E+03  0.47000000000E+01 0.  1.
         -5    1    3    3    0  503 -0.18959176721E+01 -0.22624680543E+02  0.48925914458E+02  0.54141534694E+02  0.47000000000E+01 0. -1.
<mgrwt>
<rscale>  0 0.11654675E+03</rscale>
<asrwt>0</asrwt>
<pdfrwt beam="1">  1        1 0.79149493E-02 0.11664411E+03</pdfrwt>
<pdfrwt beam="2">  1       -1 0.49296047E-01 0.11664411E+03</pdfrwt>
<totfact> 0.35424380E+03</totfact>
</mgrwt>
</event>
<event>
 8    1  0.6836165E-004  0.1152108E+03  0.7546771E-02  0.1252673E+00
         -1   -1    0    0    0  501 -0.00000000000E+00  0.00000000000E+00  0.11830656206E+03  0.11830656206E+03  0.00000000000E+00 0.  1.
          1   -1    0    0  501    0  0.00000000000E+00 -0.00000000000E+00 -0.12159407009E+03  0.12159407009E+03  0.00000000000E+00 0. -1.
         23    2    1    2    0    0  0.33195603730E+02 -0.59062173287E+02  0.36970846696E+02  0.11785860116E+03  0.89070297754E+02 0.  0.
         23    2    1    2    0    0 -0.33195603730E+02  0.59062173287E+02 -0.40258354722E+02  0.12204203099E+03  0.93183870829E+02 0.  0.
          5    1    4    4  502    0 -0.61932927611E+02  0.46982872257E+02 -0.45330979172E+02  0.90111405941E+02  0.47000000000E+01 0.  1.
         -5    1    3    3    0  503 -0.17756029602E+02  0.10128834243E+02  0.22205094085E+02  0.30545475502E+02  0.47000000000E+01 0.  1.
          5    1    3    3  503    0  0.50951633332E+02 -0.69191007530E+02  0.14765752611E+02  0.87313125659E+02  0.47000000000E+01 0. -1.
         -5    1    4    4    0  502  0.28737323880E+02  0.12079301030E+02  0.50726244501E+01  0.31930625049E+02  0.47000000000E+01 0. -1.
<mgrwt>
<rscale>  0 0.11437652E+03</rscale>
<asrwt>0</asrwt>
<pdfrwt beam="1">  1        1 0.18706780E-01 0.11521077E+03</pdfrwt>
<pdfrwt beam="2">  1       -1 0.18201009E-01 0.11521077E+03</pdfrwt>
<totfact> 0.61553720E+03</totfact>
</mgrwt>
</event>
<event>
 8    1  0.6836165E-004  0.9431738E+02  0.7546771E-02  0.1295913E+00
         -4   -1    0    0    0  501 -0.00000000000E+00  0.00000000000E+00  0.12982220544E+03  0.12982220544E+03  0.00000000000E+00 0.  1.
          4   -1    0    0  501    0  0.00000000000E+00 -0.00000000000E+00 -0.68028928417E+02  0.68028928417E+02  0.00000000000E+00 0. -1.
         23    2    1    2    0    0  0.17186661681E+02  0.12082363819E+02  0.79193374378E+01  0.89231751275E+02  0.86361013629E+02 0.  0.
         23    2    1    2    0    0 -0.17186661681E+02 -0.12082363819E+02  0.53873939581E+02  0.10861938258E+03  0.91947833310E+02 0.  0.
          5    1    3    3  502    0  0.49818167518E+02 -0.73082615135E+01  0.61515077229E+01  0.50943022569E+02  0.47000000000E+01 0. -1.
         -5    1    3    3    0  502 -0.32631505837E+02  0.19390625333E+02  0.17678297149E+01  0.38288728706E+02  0.47000000000E+01 0.  1.
          5    1    4    4  503    0 -0.13009373526E+02 -0.33938596640E+02 -0.12290669145E+02  0.38655176748E+02  0.47000000000E+01 0. -1.
         -5    1    4    4    0  503 -0.41772881547E+01  0.21856232821E+02  0.66164608726E+02  0.69964205829E+02  0.47000000000E+01 0.  1.
<mgrwt>
<rscale>  0 0.92927526E+02</rscale>
<asrwt>0</asrwt>
<pdfrwt beam="1">  1        4 0.10465989E-01 0.94317384E+02</pdfrwt>
<pdfrwt beam="2">  1       -4 0.19972647E-01 0.94317384E+02</pdfrwt>
<totfact> 0.23823363E+03</totfact>
</mgrwt>
</event>
<event>
 8    1  0.6836165E-004  0.1225961E+03  0.7546771E-02  0.1241091E+00
         -1   -1    0    0    0  501 -0.00000000000E+00  0.00000000000E+00  0.40763706747E+03  0.40763706747E+03  0.00000000000E+00 0.  1.
          1   -1    0    0  501    0  0.00000000000E+00 -0.00000000000E+00 -0.11642299305E+03  0.11642299305E+03  0.00000000000E+00 0. -1.
         23    2    1    2    0    0  0.47640279337E+02  0.56149906581E+02  0.36337197108E+03  0.38180476171E+03  0.91177181763E+02 0.  0.
         23    2    1    2    0    0 -0.47640279337E+02 -0.56149906581E+02 -0.72157896656E+02  0.14225529880E+03  0.98017344199E+02 0.  0.
          5    1    4    4  502    0 -0.61478926494E+02 -0.29445776788E+02 -0.85134003694E+02  0.10916318408E+03  0.47000000000E+01 0. -1.
         -5    1    3    3    0  503  0.22637720141E+02  0.76858117756E+02  0.29862048797E+03  0.30921824409E+03  0.47000000000E+01 0.  1.
          5    1    3    3  503    0  0.25002559196E+02 -0.20708211175E+02  0.64751483109E+02  0.72586517627E+02  0.47000000000E+01 0. -1.
         -5    1    4    4    0  502  0.13838647157E+02 -0.26704129793E+02  0.12976107037E+02  0.33092114725E+02  0.47000000000E+01 0.  1.
<mgrwt>
<rscale>  0 0.12122406E+03</rscale>
<asrwt>0</asrwt>
<pdfrwt beam="1">  1        1 0.17911230E-01 0.12259612E+03</pdfrwt>
<pdfrwt beam="2">  1       -1 0.62713394E-01 0.12259612E+03</pdfrwt>
<totfact> 0.77965387E+02</totfact>
</mgrwt>
</event>
<event>
 8    1  0.6836165E-004  0.1042011E+03  0.7546771E-02  0.1272952E+00
         -1   -1    0    0    0  501 -0.00000000000E+00  0.00000000000E+00  0.19482827845E+03  0.19482827845E+03  0.00000000000E+00 0.  1.
          1   -1    0    0  501    0  0.00000000000E+00 -0.00000000000E+00 -0.58823638009E+02  0.58823638009E+02  0.00000000000E+00 0. -1.
         23    2    1    2    0    0 -0.45780055650E+02  0.19100810845E+02  0.34029220357E+02  0.10961682634E+03  0.91636271797E+02 0.  0.
         23    2    1    2    0    0  0.45780055650E+02 -0.19100810845E+02  0.10197542009E+03  0.14403509012E+03  0.88805779167E+02 0.  0.
          5    1    3    3  502    0  0.13225570599E+02  0.33158880311E+02 -0.63972720748E+01  0.36571056194E+02  0.47000000000E+01 0. -1.
         -5    1    4    4    0  503  0.15382571670E+01 -0.33604682547E+02  0.89317630196E+02  0.95558202097E+02  0.47000000000E+01 0.  1.
          5    1    4    4  503    0  0.44241798483E+02  0.14503871702E+02  0.12657789890E+02  0.48476888022E+02  0.47000000000E+01 0. -1.
         -5    1    3    3    0  502 -0.59005626249E+02 -0.14058069466E+02  0.40426492432E+02  0.73045770148E+02  0.47000000000E+01 0.  1.
<mgrwt>
<rscale>  0 0.10357538E+03</rscale>
<asrwt>0</asrwt>
<pdfrwt beam="1">  1        1 0.90497905E-02 0.10420106E+03</pdfrwt>
<pdfrwt beam="2">  1       -1 0.29973581E-01 0.10420106E+03</pdfrwt>
<totfact> 0.69706659E+03</totfact>
</mgrwt>
</event>
<event>
 8    1  0.6836165E-004  0.1541048E+03  0.7546771E-02  0.1198413E+00
          2   -1    0    0  501    0  0.00000000000E+00  0.00000000000E+00  0.32729945079E+02  0.32729945079E+02  0.00000000000E+00 0. -1.
         -2   -1    0    0    0  501 -0.00000000000E+00 -0.00000000000E+00 -0.69277184794E+03  0.69277184794E+03  0.00000000000E+00 0.  1.
         23    2    1    2    0    0  0.77650276687E+02 -0.95917831272E+02 -0.38588226629E+03  0.41551583058E+03  0.92295645620E+02 0.  0.
         23    2    1    2    0    0 -0.77650276687E+02  0.95917831272E+02 -0.27415963658E+03  0.30998596244E+03  0.75485063149E+02 0.  0.
          5    1    3    3  502    0 -0.11118408477E+02 -0.54836418186E+02 -0.14450603865E+03  0.15503140641E+03  0.47000000000E+01 0. -1.
         -5    1    4    4    0  503 -0.59486492933E+02  0.25950229007E+02 -0.82365348342E+02  0.10496760374E+03  0.47000000000E+01 0.  1.
          5    1    4    4  503    0 -0.18163783755E+02  0.69967602265E+02 -0.19179428823E+03  0.20501835870E+03  0.47000000000E+01 0. -1.
         -5    1    3    3    0  502  0.88768685164E+02 -0.41081413087E+02 -0.24137622764E+03  0.26048442417E+03  0.47000000000E+01 0.  1.
<mgrwt>
<rscale>  0 0.15168844E+03</rscale>
<asrwt>0</asrwt>
<pdfrwt beam="1">  1        2 0.50353759E-02 0.15410478E+03</pdfrwt>
<pdfrwt beam="2">  1       -2 0.10658029E+00 0.15410478E+03</pdfrwt>
<totfact> 0.11210061E+03</totfact>
</mgrwt>
</event>
<event>
 8    1  0.6836165E-004  0.1167852E+03  0.7546771E-02  0.1248659E+00
         -2   -1    0    0    0  501 -0.00000000000E+00  0.00000000000E+00  0.82817797846E+02  0.82817797846E+02  0.00000000000E+00 0.  1.
          2   -1    0    0  501    0  0.00000000000E+00 -0.00000000000E+00 -0.19051729279E+03  0.19051729279E+03  0.00000000000E+00 0. -1.
         23    2    1    2    0    0 -0.21338879338E+01 -0.72666947441E+02 -0.29299152110E+01  0.11644198789E+03  0.90912669149E+02 0.  0.
         23    2    1    2    0    0  0.21338879338E+01  0.72666947441E+02 -0.10476957974E+03  0.15689310275E+03  0.91398808117E+02 0.  0.
          5    1    3    3  502    0  0.28276005811E+02 -0.56206337879E+02 -0.32254407151E+02  0.70859873716E+02  0.47000000000E+01 0. -1.
         -5    1    3    3    0  502 -0.30409893745E+02 -0.16460609562E+02  0.29324491940E+02  0.45582114171E+02  0.47000000000E+01 0.  1.
          5    1    4    4  503    0  0.41491915900E+02  0.12982743472E+02 -0.28216824846E+02  0.52042385778E+02  0.47000000000E+01 0. -1.
         -5    1    4    4    0  503 -0.39358027966E+02  0.59684203968E+02 -0.76552754890E+02  0.10485071697E+03  0.47000000000E+01 0.  1.
<mgrwt>
<rscale>  0 0.11669006E+03</rscale>
<asrwt>0</asrwt>
<pdfrwt beam="1">  1        2 0.29310353E-01 0.11678519E+03</pdfrwt>
<pdfrwt beam="2">  1       -2 0.12741200E-01 0.11678519E+03</pdfrwt>
<totfact> 0.75616814E+03</totfact>
</mgrwt>
</event>
<event>
 8    1  0.6836165E-004  0.1000097E+03  0.7546771E-02  0.1280532E+00
         -2   -1    0    0    0  501 -0.00000000000E+00  0.00000000000E+00  0.91272173773E+02  0.91272173773E+02  0.00000000000E+00 0.  1.
          2   -1    0    0  501    0  0.00000000000E+00 -0.00000000000E+00 -0.15232596910E+03  0.15232596910E+03  0.00000000000E+00 0. -1.
         23    2    1    2    0    0  0.21794616769E+02 -0.30061590584E+02 -0.95499409323E+02  0.13828259550E+03  0.92861372421E+02 0.  0.
         23    2    1    2    0    0 -0.21794616769E+02  0.30061590584E+02  0.34445613995E+02  0.10531554738E+03  0.92337206190E+02 0.  0.
          5    1    3    3  502    0 -0.26647535866E+02 -0.38439052311E+02 -0.65075529367E+02  0.80278056981E+02  0.47000000000E+01 0. -1.
         -5    1    4    4    0  503 -0.40708212202E+01  0.52368097239E+02  0.49867271567E+02  0.72579776573E+02  0.47000000000E+01 0.  1.
          5    1    4    4  503    0 -0.17723795549E+02 -0.22306506655E+02 -0.15421657571E+02  0.32735770803E+02  0.47000000000E+01 0. -1.
         -5    1    3    3    0  502  0.48442152635E+02  0.83774617269E+01 -0.30423879956E+02  0.58004538516E+02  0.47000000000E+01 0.  1.
<mgrwt>
<rscale>  0 0.99887845E+02</rscale>
<asrwt>0</asrwt>
<pdfrwt beam="1">  1        2 0.23434765E-01 0.10000969E+03</pdfrwt>
<pdfrwt beam="2">  1       -2 0.14041873E-01 0.10000969E+03</pdfrwt>
<totfact> 0.81548812E+03</totfact>
</mgrwt>
</event>
<event>
 8    1  0.6836165E-004  0.1309232E+03  0.7546771E-02  0.1226346E+00
         -2   -1    0    0    0  501 -0.00000000000E+00  0.00000000000E+00  0.39469056355E+03  0.39469056355E+03  0.00000000000E+00 0.  1.
          2   -1    0    0  501    0  0.00000000000E+00 -0.00000000000E+00 -0.53456019468E+02  0.53456019468E+02  0.00000000000E+00 0. -1.
         23    2    1    2    0    0 -0.23395391384E+02 -0.88878922553E+02  0.26839803718E+03  0.29832658418E+03  0.92273708356E+02 0.  0.
         23    2    1    2    0    0  0.23395391384E+02  0.88878922553E+02  0.72836506907E+02  0.14981999884E+03  0.93241986800E+02 0.  0.
          5    1    3    3  502    0 -0.37471435687E+02 -0.33125021946E+01  0.12558070242E+03  0.13117806213E+03  0.47000000000E+01 0. -1.
         -5    1    4    4    0  503 -0.21280212197E+02  0.72697652630E+02  0.67870263367E+02  0.10181482593E+03  0.47000000000E+01 0.  1.
          5    1    4    4  503    0  0.44675603581E+02  0.16181269922E+02  0.49662435392E+01  0.48005172914E+02  0.47000000000E+01 0. -1.
         -5    1    3    3    0  502  0.14076044303E+02 -0.85566420358E+02  0.14281733476E+03  0.16714852205E+03  0.47000000000E+01 0.  1.
<mgrwt>
<rscale>  0 0.13075087E+03</rscale>
<asrwt>0</asrwt>
<pdfrwt beam="1">  1        2 0.82240032E-02 0.13092317E+03</pdfrwt>
<pdfrwt beam="2">  1       -2 0.60721623E-01 0.13092317E+03</pdfrwt>
<totfact> 0.20378759E+03</totfact>
</mgrwt>
</event>
<event>
 8    1  0.6836165E-004  0.1193820E+03  0.7546771E-02  0.1244427E+00
          2   -1    0    0  501    0  0.00000000000E+00  0.00000000000E+00  0.93649376866E+03  0.93649376866E+03  0.00000000000E+00 0. -1.
         -2   -1    0    0    0  501 -0.00000000000E+00 -0.00000000000E+00 -0.28189443803E+02  0.28189443803E+02  0.00000000000E+00 0.  1.
         23    2    1    2    0    0 -0.46935784916E-01 -0.76661258204E+02  0.78176548598E+03  0.79071726649E+03  0.90551475646E+02 0.  0.
         23    2    1    2    0    0  0.46935784916E-01  0.76661258204E+02  0.12653883887E+03  0.17396594597E+03  0.91515692108E+02 0.  0.
          5    1    3    3  502    0  0.25737141952E+02 -0.84336198622E+02  0.51048743124E+03  0.51806804797E+03  0.47000000000E+01 0. -1.
         -5    1    3    3    0  502 -0.25784077737E+02  0.76749404180E+01  0.27127805474E+03  0.27264921852E+03  0.47000000000E+01 0.  1.
          5    1    4    4  503    0 -0.26270630245E+01  0.56645129749E+02  0.13870774395E+03  0.14992498263E+03  0.47000000000E+01 0. -1.
         -5    1    4    4    0  503  0.26739988094E+01  0.20016128455E+02 -0.12168905073E+02  0.24040963347E+02  0.47000000000E+01 0.  1.
<mgrwt>
<rscale>  0 0.11919723E+03</rscale>
<asrwt>0</asrwt>
<pdfrwt beam="1">  1        2 0.14407594E+00 0.11938204E+03</pdfrwt>
<pdfrwt beam="2">  1       -2 0.43368382E-02 0.11938204E+03</pdfrwt>
<totfact> 0.67433638E+03</totfact>
</mgrwt>
</event>
<event>
 8    1  0.6836165E-004  0.1001374E+03  0.7546771E-02  0.1280457E+00
          2   -1    0    0  501    0  0.00000000000E+00  0.00000000000E+00  0.48203898469E+02  0.48203898469E+02  0.00000000000E+00 0. -1.
         -2   -1    0    0    0  501 -0.00000000000E+00 -0.00000000000E+00 -0.23778818080E+03  0.23778818080E+03  0.00000000000E+00 0.  1.
         23    2    1    2    0    0  0.32840159133E+02 -0.42996595961E-01 -0.43070250666E+02  0.10900710373E+03  0.94599282609E+02 0.  0.
         23    2    1    2    0    0 -0.32840159133E+02  0.42996595961E-01 -0.14651403167E+03  0.17698497554E+03  0.93695475834E+02 0.  0.
          5    1    3    3  502    0 -0.20904949258E+02  0.26869285636E+02 -0.33443151410E+02  0.47953204172E+02  0.47000000000E+01 0. -1.
         -5    1    4    4    0  503  0.22701541350E+02 -0.27900373563E+02 -0.63947791273E+02  0.73520070956E+02  0.47000000000E+01 0.  1.
          5    1    4    4  503    0 -0.55541700483E+02  0.27943370159E+02 -0.82566240395E+02  0.10346490459E+03  0.47000000000E+01 0. -1.
         -5    1    3    3    0  502  0.53745108391E+02 -0.26912282232E+02 -0.96270992559E+01  0.61053899556E+02  0.47000000000E+01 0.  1.
<mgrwt>
<rscale>  0 0.99923386E+02</rscale>
<asrwt>0</asrwt>
<pdfrwt beam="1">  1        2 0.74159846E-02 0.10013742E+03</pdfrwt>
<pdfrwt beam="2">  1       -2 0.36582796E-01 0.10013742E+03</pdfrwt>
<totfact> 0.61111790E+03</totfact>
</mgrwt>
</event>
<event>
 8    1  0.6836165E-004  0.1000760E+03  0.7546771E-02  0.1280187E+00
          1   -1    0    0  501    0  0.00000000000E+00  0.00000000000E+00  0.66659118098E+02  0.66659118098E+02  0.00000000000E+00 0. -1.
         -1   -1    0    0    0  501 -0.00000000000E+00 -0.00000000000E+00 -0.16815599729E+03  0.16815599729E+03  0.00000000000E+00 0.  1.
         23    2    1    2    0    0 -0.32770068027E+02 -0.26872584810E+02 -0.12254715125E+02  0.10072793043E+03  0.90553435903E+02 0.  0.
         23    2    1    2    0    0  0.32770068027E+02  0.26872584810E+02 -0.89242164063E+02  0.13408718495E+03  0.90659782417E+02 0.  0.
          5    1    3    3  502    0  0.22469488788E+02  0.10239995937E+02  0.14304110138E+02  0.28921151602E+02  0.47000000000E+01 0. -1.
         -5    1    4    4    0  503 -0.26685410663E+02 -0.93326443050E+00 -0.51569288848E+02  0.58262026029E+02  0.47000000000E+01 0.  1.
          5    1    4    4  503    0  0.59455478690E+02  0.27805849240E+02 -0.37672875216E+02  0.75825158920E+02  0.47000000000E+01 0. -1.
         -5    1    3    3    0  502 -0.55239556815E+02 -0.37112580747E+02 -0.26558825263E+02  0.71806778832E+02  0.47000000000E+01 0.  1.
<mgrwt>
<rscale>  0 0.10005193E+03</rscale>
<asrwt>0</asrwt>
<pdfrwt beam="1">  1        1 0.10255249E-01 0.10007602E+03</pdfrwt>
<pdfrwt beam="2">  1       -1 0.25870153E-01 0.10007602E+03</pdfrwt>
<totfact> 0.75140659E+03</totfact>
</mgrwt>
</event>
<event>
 8    1  0.6836165E-004  0.9914826E+02  0.7546771E-02  0.1283806E+00
         -1   -1    0    0    0  501 -0.00000000000E+00  0.00000000000E+00  0.33678824115E+02  0.33678824115E+02  0.00000000000E+00 0.  1.
          1   -1    0    0  501    0  0.00000000000E+00 -0.00000000000E+00 -0.56806075810E+03  0.56806075810E+03  0.00000000000E+00 0. -1.
         23    2    1    2    0    0  0.20122345134E+02 -0.33221350016E+02 -0.48258483230E+03  0.49266469027E+03  0.91223954100E+02 0.  0.
         23    2    1    2    0    0 -0.20122345134E+02  0.33221350016E+02 -0.51797101682E+02  0.10907489194E+03  0.87782831118E+02 0.  0.
          5    1    4    4  502    0  0.32093749821E+02  0.16959207102E+01 -0.69344249629E+01  0.33212364779E+02  0.47000000000E+01 0. -1.
         -5    1    4    4    0  502 -0.52216094955E+02  0.31525429306E+02 -0.44862676719E+02  0.75862527164E+02  0.47000000000E+01 0.  1.
          5    1    3    3  503    0  0.61021938340E+01 -0.60323409323E+02 -0.39804693410E+03  0.40266562087E+03  0.47000000000E+01 0. -1.
         -5    1    3    3    0  503  0.14020151300E+02  0.27102059307E+02 -0.84537898194E+02  0.89999069396E+02  0.47000000000E+01 0.  1.
<mgrwt>
<rscale>  0 0.98349498E+02</rscale>
<asrwt>0</asrwt>
<pdfrwt beam="1">  1        1 0.87393952E-01 0.99148256E+02</pdfrwt>
<pdfrwt beam="2">  1       -1 0.51813582E-02 0.99148256E+02</pdfrwt>
<totfact> 0.59821771E+03</totfact>
</mgrwt>
</event>
<event>
 8    1  0.6836165E-004  0.1519261E+03  0.7546771E-02  0.1198198E+00
          3   -1    0    0  501    0  0.00000000000E+00  0.00000000000E+00  0.65574013973E+02  0.65574013973E+02  0.00000000000E+00 0. -1.
         -3   -1    0    0    0  501 -0.00000000000E+00 -0.00000000000E+00 -0.35226596079E+03  0.35226596079E+03  0.00000000000E+00 0.  1.
         23    2    1    2    0    0  0.76485972277E+02 -0.92314210644E+02 -0.13332963512E+03  0.20213447205E+03  0.93324893495E+02 0.  0.
         23    2    1    2    0    0 -0.76485972277E+02  0.92314210644E+02 -0.15336231170E+03  0.21570550272E+03  0.92934642693E+02 0.  0.
          5    1    4    4  502    0 -0.78630604937E+02  0.27904742793E+02 -0.63176567072E+02  0.10476075281E+03  0.47000000000E+01 0. -1.
         -5    1    4    4    0  502  0.21446326600E+01  0.64409467851E+02 -0.90185744626E+02  0.11094474991E+03  0.47000000000E+01 0.  1.
          5    1    3    3  503    0  0.23955271400E+02  0.54692636595E+01  0.41672237246E+01  0.25361853765E+02  0.47000000000E+01 0. -1.
         -5    1    3    3    0  503  0.52530700877E+02 -0.97783474304E+02 -0.13749685885E+03  0.17677261828E+03  0.47000000000E+01 0.  1.
<mgrwt>
<rscale>  0 0.15186626E+03</rscale>
<asrwt>0</asrwt>
<pdfrwt beam="1">  1        3 0.10088310E-01 0.15192614E+03</pdfrwt>
<pdfrwt beam="2">  1       -3 0.54194764E-01 0.15192614E+03</pdfrwt>
<totfact> 0.58089304E+02</totfact>
</mgrwt>
</event>
<event>
 8    1  0.6836165E-004  0.1176357E+03  0.7546771E-02  0.1248038E+00
         -2   -1    0    0    0  501 -0.00000000000E+00  0.00000000000E+00  0.25374830928E+02  0.25374830928E+02  0.00000000000E+00 0.  1.
          2   -1    0    0  501    0  0.00000000000E+00 -0.00000000000E+00 -0.54486499824E+03  0.54486499824E+03  0.00000000000E+00 0. -1.
         23    2    1    2    0    0  0.67002117070E+02  0.16564179974E+02 -0.21825188668E+03  0.24684739560E+03  0.92390989407E+02 0.  0.
         23    2    1    2    0    0 -0.67002117070E+02 -0.16564179974E+02 -0.30123828063E+03  0.32339243357E+03  0.95260215321E+02 0.  0.
          5    1    3    3  502    0 -0.15729404751E+02  0.12639760051E+02 -0.10674615651E+02  0.23306975936E+02  0.47000000000E+01 0. -1.
         -5    1    3    3    0  502  0.82731521822E+02  0.39244199232E+01 -0.20757727103E+03  0.22354041966E+03  0.47000000000E+01 0.  1.
          5    1    4    4  503    0 -0.14232012681E+02 -0.51799692794E+02 -0.13208520134E+03  0.14266866780E+03  0.47000000000E+01 0. -1.
         -5    1    4    4    0  503 -0.52770104390E+02  0.35235512821E+02 -0.16915307929E+03  0.18072376577E+03  0.47000000000E+01 0.  1.
<mgrwt>
<rscale>  0 0.11705363E+03</rscale>
<asrwt>0</asrwt>
<pdfrwt beam="1">  1        2 0.83825375E-01 0.11763573E+03</pdfrwt>
<pdfrwt beam="2">  1       -2 0.39038206E-02 0.11763573E+03</pdfrwt>
<totfact> 0.15057924E+04</totfact>
</mgrwt>
</event>
<event>
 8    1  0.6836165E-004  0.9546887E+02  0.7546771E-02  0.1291264E+00
          1   -1    0    0  501    0  0.00000000000E+00  0.00000000000E+00  0.51985247381E+03  0.51985247381E+03  0.00000000000E+00 0. -1.
         -1   -1    0    0    0  501 -0.00000000000E+00 -0.00000000000E+00 -0.17328458980E+02  0.17328458980E+02  0.00000000000E+00 0.  1.
         23    2    1    2    0    0  0.22486863565E+02  0.44905835188E+00  0.22778309736E+03  0.24698065798E+03  0.92781707730E+02 0.  0.
         23    2    1    2    0    0 -0.22486863565E+02 -0.44905835188E+00  0.27474091747E+03  0.29020027481E+03  0.90707039851E+02 0.  0.
          5    1    3    3  502    0  0.36720542807E+02  0.35691364921E+02  0.17040874495E+03  0.17799860154E+03  0.47000000000E+01 0. -1.
         -5    1    3    3    0  502 -0.14233679242E+02 -0.35242306569E+02  0.57374352405E+02  0.68982056442E+02  0.47000000000E+01 0.  1.
          5    1    4    4  503    0 -0.31708242062E+02 -0.37567042384E+02  0.10350930105E+03  0.11468635791E+03  0.47000000000E+01 0. -1.
         -5    1    4    4    0  503  0.92213784967E+01  0.37117984032E+02  0.17123161643E+03  0.17551391690E+03  0.47000000000E+01 0.  1.
<mgrwt>
<rscale>  0 0.94961089E+02</rscale>
<asrwt>0</asrwt>
<pdfrwt beam="1">  1        1 0.79977292E-01 0.95468874E+02</pdfrwt>
<pdfrwt beam="2">  1       -1 0.26659172E-02 0.95468874E+02</pdfrwt>
<totfact> 0.17587549E+04</totfact>
</mgrwt>
</event>
<event>
 8    1  0.6836165E-004  0.9204245E+02  0.7546771E-02  0.1298127E+00
         -1   -1    0    0    0  501 -0.00000000000E+00  0.00000000000E+00  0.85321964963E+02  0.85321964963E+02  0.00000000000E+00 0.  1.
          1   -1    0    0  501    0  0.00000000000E+00 -0.00000000000E+00 -0.28690051632E+03  0.28690051632E+03  0.00000000000E+00 0. -1.
         23    2    1    2    0    0  0.45749711813E+01 -0.11548543694E+02 -0.25144412117E+03  0.26776101056E+03  0.91200402876E+02 0.  0.
         23    2    1    2    0    0 -0.45749711813E+01  0.11548543694E+02  0.49865569808E+02  0.10446147072E+03  0.90946822873E+02 0.  0.
          5    1    3    3  502    0  0.21517295490E+02  0.30582001766E+02 -0.17248536774E+03  0.17655465137E+03  0.47000000000E+01 0. -1.
         -5    1    4    4    0  503  0.37401615900E+02 -0.10199753107E+02  0.54603861001E+01  0.39431226860E+02  0.47000000000E+01 0. -1.
          5    1    4    4  503    0 -0.41976587081E+02  0.21748296801E+02  0.44405183708E+02  0.65030243863E+02  0.47000000000E+01 0.  1.
         -5    1    3    3    0  502 -0.16942324308E+02 -0.42130545460E+02 -0.78958753434E+02  0.91206359195E+02  0.47000000000E+01 0.  1.
<mgrwt>
<rscale>  0 0.91979573E+02</rscale>
<asrwt>0</asrwt>
<pdfrwt beam="1">  1        1 0.44138540E-01 0.92042451E+02</pdfrwt>
<pdfrwt beam="2">  1       -1 0.13126457E-01 0.92042451E+02</pdfrwt>
<totfact> 0.34867907E+03</totfact>
</mgrwt>
</event>
<event>
 8    1  0.6836165E-004  0.9278918E+02  0.7546771E-02  0.1296357E+00
         -3   -1    0    0    0  501 -0.00000000000E+00  0.00000000000E+00  0.10431343562E+03  0.10431343562E+03  0.00000000000E+00 0.  1.
          3   -1    0    0  501    0  0.00000000000E+00 -0.00000000000E+00 -0.93390669216E+02  0.93390669216E+02  0.00000000000E+00 0. -1.
         23    2    1    2    0    0  0.11151989514E+02 -0.13148260247E+02  0.39443174703E+02  0.10063070063E+03  0.90958948222E+02 0.  0.
         23    2    1    2    0    0 -0.11151989514E+02  0.13148260247E+02 -0.28520408295E+02  0.97073404207E+02  0.91173397970E+02 0.  0.
          5    1    3    3  502    0 -0.28912394114E+02 -0.19663179554E+02 -0.98253172984E+01  0.36622315923E+02  0.47000000000E+01 0. -1.
         -5    1    3    3    0  502  0.40064383628E+02  0.65149193076E+01  0.49268492002E+02  0.64008384710E+02  0.47000000000E+01 0.  1.
          5    1    4    4  503    0  0.94323709111E+01 -0.36949938422E+02 -0.11773993598E+02  0.40186869692E+02  0.47000000000E+01 0. -1.
         -5    1    4    4    0  503 -0.20584360425E+02  0.50098198668E+02 -0.16746414697E+02  0.56886534515E+02  0.47000000000E+01 0.  1.
<mgrwt>
<rscale>  0 0.92736459E+02</rscale>
<asrwt>0</asrwt>
<pdfrwt beam="1">  1        3 0.14367795E-01 0.92789181E+02</pdfrwt>
<pdfrwt beam="2">  1       -3 0.16048221E-01 0.92789181E+02</pdfrwt>
<totfact> 0.28003292E+03</totfact>
</mgrwt>
</event>
<event>
 8    1  0.6836165E-004  0.1213079E+03  0.7546771E-02  0.1241351E+00
          2   -1    0    0  501    0  0.00000000000E+00  0.00000000000E+00  0.41008628557E+02  0.41008628557E+02  0.00000000000E+00 0. -1.
         -2   -1    0    0    0  501 -0.00000000000E+00 -0.00000000000E+00 -0.36297657917E+03  0.36297657917E+03  0.00000000000E+00 0.  1.
         23    2    1    2    0    0  0.46336470747E+02 -0.64020849103E+02 -0.13230204792E+03  0.17884358452E+03  0.90749425339E+02 0.  0.
         23    2    1    2    0    0 -0.46336470747E+02  0.64020849103E+02 -0.18966590269E+03  0.22514162321E+03  0.92031832611E+02 0.  0.
          5    1    4    4  502    0  0.23764814938E+02  0.40252508088E+02 -0.68012764324E+02  0.82661096941E+02  0.47000000000E+01 0. -1.
         -5    1    3    3    0  503 -0.20933449901E+02 -0.24800653044E+02 -0.10935456804E+02  0.34568134628E+02  0.47000000000E+01 0.  1.
          5    1    3    3  503    0  0.67269920648E+02 -0.39220196059E+02 -0.12136659111E+03  0.14427544989E+03  0.47000000000E+01 0. -1.
         -5    1    4    4    0  502 -0.70101285686E+02  0.23768341015E+02 -0.12165313837E+03  0.14248052626E+03  0.47000000000E+01 0.  1.
<mgrwt>
<rscale>  0 0.12106462E+03</rscale>
<asrwt>0</asrwt>
<pdfrwt beam="1">  1        2 0.63090198E-02 0.12130786E+03</pdfrwt>
<pdfrwt beam="2">  1       -2 0.55842550E-01 0.12130786E+03</pdfrwt>
<totfact> 0.33634742E+03</totfact>
</mgrwt>
</event>
<event>
 8    1  0.6836165E-004  0.1096171E+03  0.7546771E-02  0.1261769E+00
          1   -1    0    0  501    0  0.00000000000E+00  0.00000000000E+00  0.74802292225E+03  0.74802292225E+03  0.00000000000E+00 0. -1.
         -1   -1    0    0    0  501 -0.00000000000E+00 -0.00000000000E+00 -0.16018437724E+02  0.16018437724E+02  0.00000000000E+00 0.  1.
         23    2    1    2    0    0 -0.38925369806E+02  0.42408136058E+02  0.33294750828E+03  0.35020277153E+03  0.92055980251E+02 0.  0.
         23    2    1    2    0    0  0.38925369806E+02 -0.42408136058E+02  0.39905697625E+03  0.41383858845E+03  0.93285972014E+02 0.  0.
          5    1    3    3  502    0  0.23969429123E+02  0.10046548372E+02  0.17623392335E+03  0.17820199888E+03  0.47000000000E+01 0. -1.
         -5    1    3    3    0  502 -0.62894798930E+02  0.32361587685E+02  0.15671358493E+03  0.17200077265E+03  0.47000000000E+01 0.  1.
          5    1    4    4  503    0  0.58687391459E+02  0.26057055545E+01  0.24834469438E+03  0.25524140896E+03  0.47000000000E+01 0. -1.
         -5    1    4    4    0  503 -0.19762021653E+02 -0.45013841612E+02  0.15071228187E+03  0.15859717949E+03  0.47000000000E+01 0.  1.
<mgrwt>
<rscale>  0 0.10935495E+03</rscale>
<asrwt>0</asrwt>
<pdfrwt beam="1">  1        1 0.11508042E+00 0.10961709E+03</pdfrwt>
<pdfrwt beam="2">  1       -1 0.24643756E-02 0.10961709E+03</pdfrwt>
<totfact> 0.12123153E+04</totfact>
</mgrwt>
</event>
<event>
 8    1  0.6836165E-004  0.1268889E+03  0.7546771E-02  0.1238717E+00
         -2   -1    0    0    0  501 -0.00000000000E+00  0.00000000000E+00  0.29207667006E+02  0.29207667006E+02  0.00000000000E+00 0.  1.
          2   -1    0    0  501    0  0.00000000000E+00 -0.00000000000E+00 -0.62438707255E+03  0.62438707255E+03  0.00000000000E+00 0. -1.
         23    2    1    2    0    0 -0.62267219370E+02  0.10249968620E+02 -0.12745736623E+03  0.16896632455E+03  0.91224833037E+02 0.  0.
         23    2    1    2    0    0  0.62267219370E+02 -0.10249968620E+02 -0.46772203932E+03  0.48462841500E+03  0.11008417734E+03 0.  0.
          5    1    4    4  502    0  0.41333137464E+02 -0.58681544007E+02 -0.31049141969E+03  0.31871454871E+03  0.47000000000E+01 0. -1.
         -5    1    3    3    0  503 -0.10751451788E+02  0.44108343936E+02 -0.34018142177E+02  0.56925071080E+02  0.47000000000E+01 0.  1.
          5    1    3    3  503    0 -0.51515767582E+02 -0.33858375316E+02 -0.93439224051E+02  0.11204125347E+03  0.47000000000E+01 0. -1.
         -5    1    4    4    0  502  0.20934081906E+02  0.48431575386E+02 -0.15723061963E+03  0.16591386630E+03  0.47000000000E+01 0.  1.
<mgrwt>
<rscale>  0 0.12269436E+03</rscale>
<asrwt>0</asrwt>
<pdfrwt beam="1">  1        2 0.96059527E-01 0.12688891E+03</pdfrwt>
<pdfrwt beam="2">  1       -2 0.44934883E-02 0.12688891E+03</pdfrwt>
<totfact> 0.10541423E+04</totfact>
</mgrwt>
</event>
<event>
 8    1  0.6836165E-004  0.1245568E+03  0.7546771E-02  0.1237114E+00
         -1   -1    0    0    0  501 -0.00000000000E+00  0.00000000000E+00  0.73384825861E+03  0.73384825861E+03  0.00000000000E+00 0.  1.
          1   -1    0    0  501    0  0.00000000000E+00 -0.00000000000E+00 -0.24533284874E+02  0.24533284874E+02  0.00000000000E+00 0. -1.
         23    2    1    2    0    0  0.61836811784E+02  0.59147752026E+02  0.50295370120E+03  0.51734341680E+03  0.85787746777E+02 0.  0.
         23    2    1    2    0    0 -0.61836811784E+02 -0.59147752026E+02  0.20636127253E+03  0.24103812668E+03  0.90510528942E+02 0.  0.
          5    1    3    3  502    0  0.53381310808E+01  0.37841271816E+02  0.67596053659E+02  0.77793148583E+02  0.47000000000E+01 0. -1.
         -5    1    4    4    0  503 -0.39063050260E+02 -0.13720618785E+02  0.17767424557E+03  0.18249494463E+03  0.47000000000E+01 0.  1.
          5    1    4    4  503    0 -0.22773761525E+02 -0.45427133241E+02  0.28687026959E+02  0.58543182047E+02  0.47000000000E+01 0. -1.
         -5    1    3    3    0  502  0.56498680704E+02  0.21306480210E+02  0.43535764754E+03  0.43955026822E+03  0.47000000000E+01 0.  1.
<mgrwt>
<rscale>  0 0.12370094E+03</rscale>
<asrwt>0</asrwt>
<pdfrwt beam="1">  1        1 0.37743521E-02 0.12455683E+03</pdfrwt>
<pdfrwt beam="2">  1       -1 0.11289972E+00 0.12455683E+03</pdfrwt>
<totfact> 0.18240682E+03</totfact>
</mgrwt>
</event>
<event>
 8    1  0.6836165E-004  0.9928287E+02  0.7546771E-02  0.1281864E+00
         -2   -1    0    0    0  501 -0.00000000000E+00  0.00000000000E+00  0.10808721408E+02  0.10808721408E+02  0.00000000000E+00 0.  1.
          2   -1    0    0  501    0  0.00000000000E+00 -0.00000000000E+00 -0.98932034267E+03  0.98932034267E+03  0.00000000000E+00 0. -1.
         23    2    1    2    0    0 -0.34225220504E+02 -0.15667911539E+02 -0.34836523280E+03  0.36220935216E+03  0.91762902091E+02 0.  0.
         23    2    1    2    0    0  0.34225220504E+02  0.15667911539E+02 -0.63014638846E+03  0.63791971192E+03  0.91870772213E+02 0.  0.
          5    1    3    3  502    0 -0.60142636372E+02 -0.14142944896E+02 -0.15299805394E+03  0.16506863454E+03  0.47000000000E+01 0.  1.
         -5    1    3    3    0  502  0.25917415867E+02 -0.15249666439E+01 -0.19536717886E+03  0.19714071762E+03  0.47000000000E+01 0. -1.
          5    1    4    4  503    0 -0.60976705169E+01  0.47234875037E+02 -0.30368180523E+03  0.30742973804E+03  0.47000000000E+01 0. -1.
         -5    1    4    4    0  503  0.40322891021E+02 -0.31566963498E+02 -0.32646458323E+03  0.33048997387E+03  0.47000000000E+01 0.  1.
<mgrwt>
<rscale>  0 0.99257907E+02</rscale>
<asrwt>0</asrwt>
<pdfrwt beam="1">  1        2 0.15220312E+00 0.99282868E+02</pdfrwt>
<pdfrwt beam="2">  1       -2 0.16628803E-02 0.99282868E+02</pdfrwt>
<totfact> 0.25012938E+04</totfact>
</mgrwt>
</event>
<event>
 8    1  0.6836165E-004  0.9439160E+02  0.7546771E-02  0.1295233E+00
          1   -1    0    0  501    0  0.00000000000E+00  0.00000000000E+00  0.51728490882E+03  0.51728490882E+03  0.00000000000E+00 0. -1.
         -1   -1    0    0    0  501 -0.00000000000E+00 -0.00000000000E+00 -0.16775831226E+02  0.16775831226E+02  0.00000000000E+00 0.  1.
         23    2    1    2    0    0  0.19831587480E+02  0.82831360362E+01  0.21618256906E+03  0.23589124075E+03  0.91912306531E+02 0.  0.
         23    2    1    2    0    0 -0.19831587480E+02 -0.82831360362E+01  0.28432650853E+03  0.29816949929E+03  0.87187067000E+02 0.  0.
          5    1    4    4  502    0 -0.25298620808E+02  0.18071560422E+02  0.25903895225E+03  0.26094035773E+03  0.47000000000E+01 0. -1.
         -5    1    4    4    0  502  0.54670333277E+01 -0.26354696458E+02  0.25287556279E+02  0.37229141561E+02  0.47000000000E+01 0.  1.
          5    1    3    3  503    0  0.65637745839E+01  0.49273315420E+02  0.13363390944E+03  0.14265712215E+03  0.47000000000E+01 0. -1.
         -5    1    3    3    0  503  0.13267812896E+02 -0.40990179384E+02  0.82548659626E+02  0.93234118599E+02  0.47000000000E+01 0.  1.
<mgrwt>
<rscale>  0 0.93221347E+02</rscale>
<asrwt>0</asrwt>
<pdfrwt beam="1">  1        1 0.79582281E-01 0.94391601E+02</pdfrwt>
<pdfrwt beam="2">  1       -1 0.25808975E-02 0.94391601E+02</pdfrwt>
<totfact> 0.18524723E+04</totfact>
</mgrwt>
</event>
<event>
 8    1  0.6836165E-004  0.1293614E+03  0.7546771E-02  0.1229155E+00
         -2   -1    0    0    0  501 -0.00000000000E+00  0.00000000000E+00  0.52658575050E+02  0.52658575050E+02  0.00000000000E+00 0.  1.
          2   -1    0    0  501    0  0.00000000000E+00 -0.00000000000E+00 -0.73082248545E+03  0.73082248545E+03  0.00000000000E+00 0. -1.
         23    2    1    2    0    0  0.62525644960E+01 -0.87258586211E+02 -0.43981068389E+02  0.13663348223E+03  0.95295428316E+02 0.  0.
         23    2    1    2    0    0 -0.62525644960E+01  0.87258586211E+02 -0.63418284202E+03  0.64684757828E+03  0.92578382941E+02 0.  0.
          5    1    4    4  502    0 -0.26584748031E+02  0.86191976315E+02 -0.60017479996E+03  0.60693301617E+03  0.47000000000E+01 0. -1.
         -5    1    3    3    0  503 -0.20496272547E+02 -0.94035086543E+02 -0.17173887141E+02  0.97876080270E+02  0.47000000000E+01 0.  1.
          5    1    3    3  503    0  0.26748837043E+02  0.67765003314E+01 -0.26807181247E+02  0.38757401955E+02  0.47000000000E+01 0. -1.
         -5    1    4    4    0  502  0.20332183535E+02  0.10666098961E+01 -0.34008042055E+02  0.39914562110E+02  0.47000000000E+01 0.  1.
<mgrwt>
<rscale>  0 0.12886145E+03</rscale>
<asrwt>0</asrwt>
<pdfrwt beam="1">  1        2 0.11243422E+00 0.12936141E+03</pdfrwt>
<pdfrwt beam="2">  1       -2 0.81013197E-02 0.12936141E+03</pdfrwt>
<totfact> 0.35915739E+03</totfact>
</mgrwt>
</event>
<event>
 8    1  0.6836165E-004  0.1028511E+03  0.7546771E-02  0.1277355E+00
          3   -1    0    0  501    0  0.00000000000E+00  0.00000000000E+00  0.40198928962E+03  0.40198928962E+03  0.00000000000E+00 0. -1.
         -3   -1    0    0    0  501 -0.00000000000E+00 -0.00000000000E+00 -0.25873828650E+02  0.25873828650E+02  0.00000000000E+00 0.  1.
         23    2    1    2    0    0 -0.36818441770E+02  0.53292275217E+01  0.14130363940E+03  0.17151388096E+03  0.89812552217E+02 0.  0.
         23    2    1    2    0    0  0.36818441770E+02 -0.53292275217E+01  0.23481182157E+03  0.25634923731E+03  0.95887129466E+02 0.  0.
          5    1    4    4  502    0  0.42272131471E+02  0.34334405767E+02  0.18124731496E+03  0.18931049548E+03  0.47000000000E+01 0. -1.
         -5    1    4    4    0  502 -0.54536897014E+01 -0.39663633289E+02  0.53564506609E+02  0.67038741824E+02  0.47000000000E+01 0.  1.
          5    1    3    3  503    0 -0.20114237845E+02  0.38500942329E+02  0.12159486416E+03  0.12920644765E+03  0.47000000000E+01 0. -1.
         -5    1    3    3    0  503 -0.16704203924E+02 -0.33171714807E+02  0.19708775234E+02  0.42307433310E+02  0.47000000000E+01 0.  1.
<mgrwt>
<rscale>  0 0.10141150E+03</rscale>
<asrwt>0</asrwt>
<pdfrwt beam="1">  1        3 0.61844501E-01 0.10285106E+03</pdfrwt>
<pdfrwt beam="2">  1       -3 0.39805893E-02 0.10285106E+03</pdfrwt>
<totfact> 0.18463929E+03</totfact>
</mgrwt>
</event>
<event>
 8    1  0.6836165E-004  0.1367993E+03  0.7546771E-02  0.1218186E+00
         -1   -1    0    0    0  501 -0.00000000000E+00  0.00000000000E+00  0.52192414576E+02  0.52192414576E+02  0.00000000000E+00 0.  1.
          1   -1    0    0  501    0  0.00000000000E+00 -0.00000000000E+00 -0.35596449954E+03  0.35596449954E+03  0.00000000000E+00 0. -1.
         23    2    1    2    0    0  0.48308773382E+01  0.10057962429E+03 -0.16213582352E+03  0.21124353849E+03  0.90532917145E+02 0.  0.
         23    2    1    2    0    0 -0.48308773382E+01 -0.10057962429E+03 -0.14163626144E+03  0.19691337563E+03  0.92598319360E+02 0.  0.
          5    1    3    3  502    0  0.44488069403E+02  0.43166822149E+02 -0.53365743388E+02  0.81930186262E+02  0.47000000000E+01 0. -1.
         -5    1    3    3    0  502 -0.39657192065E+02  0.57412802137E+02 -0.10877008014E+03  0.12931335223E+03  0.47000000000E+01 0.  1.
          5    1    4    4  503    0 -0.44709300183E+02 -0.45735590654E+02 -0.94463353606E+02  0.11417565831E+03  0.47000000000E+01 0. -1.
         -5    1    4    4    0  503  0.39878422845E+02 -0.54844033632E+02 -0.47172907836E+02  0.82737717320E+02  0.47000000000E+01 0.  1.
<mgrwt>
<rscale>  0 0.13645058E+03</rscale>
<asrwt>0</asrwt>
<pdfrwt beam="1">  1        1 0.54763770E-01 0.13679929E+03</pdfrwt>
<pdfrwt beam="2">  1       -1 0.80296021E-02 0.13679929E+03</pdfrwt>
<totfact> 0.57766728E+03</totfact>
</mgrwt>
</event>
<event>
 8    1  0.6836165E-004  0.1033510E+03  0.7546771E-02  0.1273916E+00
          3   -1    0    0  501    0  0.00000000000E+00  0.00000000000E+00  0.20079534447E+03  0.20079534447E+03  0.00000000000E+00 0. -1.
         -3   -1    0    0    0  501 -0.00000000000E+00 -0.00000000000E+00 -0.52805249093E+02  0.52805249093E+02  0.00000000000E+00 0.  1.
         23    2    1    2    0    0  0.31123370887E+02 -0.35856620957E+02  0.79922644398E+02  0.12984838274E+03  0.90656560335E+02 0.  0.
         23    2    1    2    0    0 -0.31123370887E+02  0.35856620957E+02  0.68067450977E+02  0.12375221082E+03  0.91799075801E+02 0.  0.
          5    1    3    3  502    0 -0.14713637612E+02 -0.29539869071E+02  0.76222789433E+02  0.83193140495E+02  0.47000000000E+01 0. -1.
         -5    1    4    4    0  503 -0.51578106144E+02  0.45439851084E+02  0.72762114700E+02  0.10020726738E+03  0.47000000000E+01 0.  1.
          5    1    4    4  503    0  0.20454735257E+02 -0.95832301269E+01 -0.46946637228E+01  0.23544943439E+02  0.47000000000E+01 0. -1.
         -5    1    3    3    0  502  0.45837008499E+02 -0.63167518859E+01  0.36998549651E+01  0.46655242249E+02  0.47000000000E+01 0.  1.
<mgrwt>
<rscale>  0 0.10309671E+03</rscale>
<asrwt>0</asrwt>
<pdfrwt beam="1">  1        3 0.30891591E-01 0.10335101E+03</pdfrwt>
<pdfrwt beam="2">  1       -3 0.81238845E-02 0.10335101E+03</pdfrwt>
<totfact> 0.23005505E+03</totfact>
</mgrwt>
</event>
<event>
 8    1  0.6836165E-004  0.1091010E+03  0.7546771E-02  0.1262818E+00
         -1   -1    0    0    0  501 -0.00000000000E+00  0.00000000000E+00  0.10801723955E+03  0.10801723955E+03  0.00000000000E+00 0.  1.
          1   -1    0    0  501    0  0.00000000000E+00 -0.00000000000E+00 -0.13930274234E+03  0.13930274234E+03  0.00000000000E+00 0. -1.
         23    2    1    2    0    0 -0.48520321581E+02  0.37385727309E+02  0.42131410539E+02  0.11581687767E+03  0.88806414113E+02 0.  0.
         23    2    1    2    0    0  0.48520321581E+02 -0.37385727309E+02 -0.73416913326E+02  0.13150310421E+03  0.90283492634E+02 0.  0.
          5    1    3    3  502    0  0.23314870290E+02  0.24977599643E+02  0.17860735155E+02  0.38840179207E+02  0.47000000000E+01 0. -1.
         -5    1    4    4    0  503  0.21566155856E+02 -0.20323103711E+02  0.17709254919E+02  0.34840139676E+02  0.47000000000E+01 0.  1.
          5    1    4    4  503    0  0.26954165725E+02 -0.17062623598E+02 -0.91126168244E+02  0.96662964536E+02  0.47000000000E+01 0. -1.
         -5    1    3    3    0  502 -0.71835191871E+02  0.12408127665E+02  0.24270675384E+02  0.76976698467E+02  0.47000000000E+01 0.  1.
<mgrwt>
<rscale>  0 0.10879491E+03</rscale>
<asrwt>0</asrwt>
<pdfrwt beam="1">  1        1 0.21431191E-01 0.10910098E+03</pdfrwt>
<pdfrwt beam="2">  1       -1 0.16618037E-01 0.10910098E+03</pdfrwt>
<totfact> 0.59606177E+03</totfact>
</mgrwt>
</event>
<event>
 8    1  0.6836165E-004  0.1206964E+03  0.7546771E-02  0.1247284E+00
         -2   -1    0    0    0  501 -0.00000000000E+00  0.00000000000E+00  0.47601160318E+03  0.47601160318E+03  0.00000000000E+00 0.  1.
          2   -1    0    0  501    0  0.00000000000E+00 -0.00000000000E+00 -0.27602845821E+02  0.27602845821E+02  0.00000000000E+00 0. -1.
         23    2    1    2    0    0  0.22937505857E+02  0.52234197484E+02  0.22151036146E+03  0.24661153433E+03  0.92173033299E+02 0.  0.
         23    2    1    2    0    0 -0.22937505857E+02 -0.52234197484E+02  0.22689839590E+03  0.25700291467E+03  0.10636294245E+03 0.  0.
          5    1    4    4  502    0 -0.26400218125E+02 -0.80628473150E+02  0.20063667458E+03  0.21788778623E+03  0.47000000000E+01 0. -1.
         -5    1    4    4    0  502  0.34627122677E+01  0.28394275666E+02  0.26261721315E+02  0.39115128446E+02  0.47000000000E+01 0.  1.
          5    1    3    3  503    0  0.31193391573E+02 -0.17984860360E+02  0.93402943338E+02  0.10021318628E+03  0.47000000000E+01 0. -1.
         -5    1    3    3    0  503 -0.82558857152E+01  0.70219057844E+02  0.12810741813E+03  0.14639834805E+03  0.47000000000E+01 0.  1.
<mgrwt>
<rscale>  0 0.11749714E+03</rscale>
<asrwt>0</asrwt>
<pdfrwt beam="1">  1        2 0.42465920E-02 0.12069638E+03</pdfrwt>
<pdfrwt beam="2">  1       -2 0.73232548E-01 0.12069638E+03</pdfrwt>
<totfact> 0.31986474E+03</totfact>
</mgrwt>
</event>
<event>
 8    1  0.6836165E-004  0.1340712E+03  0.7546771E-02  0.1221613E+00
          2   -1    0    0  501    0  0.00000000000E+00  0.00000000000E+00  0.21155111818E+03  0.21155111818E+03  0.00000000000E+00 0. -1.
         -2   -1    0    0    0  501 -0.00000000000E+00 -0.00000000000E+00 -0.85749823083E+02  0.85749823083E+02  0.00000000000E+00 0.  1.
         23    2    1    2    0    0 -0.19071276733E+02 -0.95801771242E+02  0.47578093232E+02  0.14226302542E+03  0.91833547661E+02 0.  0.
         23    2    1    2    0    0  0.19071276733E+02  0.95801771242E+02  0.78223201865E+02  0.15503791584E+03  0.91521544294E+02 0.  0.
          5    1    4    4  502    0  0.27099820758E+02 -0.67827559081E+01  0.30137269920E+02  0.41361227025E+02  0.47000000000E+01 0. -1.
         -5    1    3    3    0  503 -0.34133094298E+02 -0.76308092082E+02 -0.51397979882E+01  0.83883851646E+02  0.47000000000E+01 0.  1.
          5    1    3    3  503    0  0.15061817565E+02 -0.19493679160E+02  0.52717891220E+02  0.58379173772E+02  0.47000000000E+01 0. -1.
         -5    1    4    4    0  502 -0.80285440252E+01  0.10258452715E+03  0.48085931945E+02  0.11367668882E+03  0.47000000000E+01 0.  1.
<mgrwt>
<rscale>  0 0.13401781E+03</rscale>
<asrwt>0</asrwt>
<pdfrwt beam="1">  1        2 0.32546326E-01 0.13407123E+03</pdfrwt>
<pdfrwt beam="2">  1       -2 0.13192281E-01 0.13407123E+03</pdfrwt>
<totfact> 0.64509027E+03</totfact>
</mgrwt>
</event>
<event>
 8    1  0.6836165E-004  0.9663816E+02  0.7546771E-02  0.1288266E+00
          1   -1    0    0  501    0  0.00000000000E+00  0.00000000000E+00  0.44234269799E+02  0.44234269799E+02  0.00000000000E+00 0. -1.
         -1   -1    0    0    0  501 -0.00000000000E+00 -0.00000000000E+00 -0.37768991946E+03  0.37768991946E+03  0.00000000000E+00 0.  1.
         23    2    1    2    0    0 -0.22671209656E+02 -0.16111847869E+02 -0.24783445606E+02  0.98477958355E+02  0.91159825124E+02 0.  0.
         23    2    1    2    0    0  0.22671209656E+02  0.16111847869E+02 -0.30867220406E+03  0.32344623091E+03  0.92549226579E+02 0.  0.
          5    1    3    3  502    0  0.26773446609E+02  0.95164791602E+01 -0.30916253098E+02  0.42252639261E+02  0.47000000000E+01 0. -1.
         -5    1    4    4    0  503 -0.28644088863E+02  0.10993293970E+02 -0.20732749858E+03  0.20963806431E+03  0.47000000000E+01 0.  1.
          5    1    4    4  503    0  0.51315298519E+02  0.51185538991E+01 -0.10134470548E+03  0.11380816660E+03  0.47000000000E+01 0.  1.
         -5    1    3    3    0  502 -0.49444656264E+02 -0.25628327030E+02  0.61328074926E+01  0.56225319094E+02  0.47000000000E+01 0.  1.
<mgrwt>
<rscale>  0 0.96303991E+02</rscale>
<asrwt>0</asrwt>
<pdfrwt beam="1">  1        1 0.68052722E-02 0.96638164E+02</pdfrwt>
<pdfrwt beam="2">  1       -1 0.58106142E-01 0.96638164E+02</pdfrwt>
<totfact> 0.31654278E+03</totfact>
</mgrwt>
</event>
<event>
 8    1  0.6836165E-004  0.9276953E+02  0.7546771E-02  0.1296324E+00
         -1   -1    0    0    0  501 -0.00000000000E+00  0.00000000000E+00  0.10271603198E+02  0.10271603198E+02  0.00000000000E+00 0.  1.
          1   -1    0    0  501    0  0.00000000000E+00 -0.00000000000E+00 -0.10808216935E+04  0.10808216935E+04  0.00000000000E+00 0. -1.
         23    2    1    2    0    0  0.10958667229E+02  0.98266758786E+01 -0.79412584167E+03  0.79951732019E+03  0.91517413239E+02 0.  0.
         23    2    1    2    0    0 -0.10958667229E+02 -0.98266758786E+01 -0.27642424861E+03  0.29157597649E+03  0.91594371546E+02 0.  0.
          5    1    4    4  502    0  0.38342818664E+02 -0.17365849736E+02 -0.13877932823E+03  0.14509836810E+03  0.47000000000E+01 0. -1.
         -5    1    4    4    0  502 -0.49301485893E+02  0.75391738574E+01 -0.13764492038E+03  0.14647760839E+03  0.47000000000E+01 0.  1.
          5    1    3    3  503    0 -0.32022983929E+02 -0.21768942662E+02 -0.35622303450E+03  0.35835219920E+03  0.47000000000E+01 0. -1.
         -5    1    3    3    0  503  0.42981651158E+02  0.31595618541E+02 -0.43790280717E+03  0.44116512099E+03  0.47000000000E+01 0.  1.
<mgrwt>
<rscale>  0 0.92750524E+02</rscale>
<asrwt>0</asrwt>
<pdfrwt beam="1">  1        1 0.16628029E+00 0.92769525E+02</pdfrwt>
<pdfrwt beam="2">  1       -1 0.15802464E-02 0.92769525E+02</pdfrwt>
<totfact> 0.12641026E+04</totfact>
</mgrwt>
</event>
<event>
 8    1  0.6836165E-004  0.1028536E+03  0.7546771E-02  0.1278614E+00
          1   -1    0    0  501    0  0.00000000000E+00  0.00000000000E+00  0.61484760208E+02  0.61484760208E+02  0.00000000000E+00 0. -1.
         -1   -1    0    0    0  501 -0.00000000000E+00 -0.00000000000E+00 -0.17741669445E+03  0.17741669445E+03  0.00000000000E+00 0.  1.
         23    2    1    2    0    0 -0.17856085701E+02 -0.22798725535E+02 -0.94328619423E+02  0.13380353326E+03  0.90370766231E+02 0.  0.
         23    2    1    2    0    0  0.17856085701E+02  0.22798725535E+02 -0.21603314818E+02  0.10509792139E+03  0.98692695714E+02 0.  0.
          5    1    3    3  502    0  0.12949144584E+02 -0.36224256576E+02 -0.60448303906E+01  0.39223807622E+02  0.47000000000E+01 0. -1.
         -5    1    3    3    0  502 -0.30805230285E+02  0.13425531040E+02 -0.88283789033E+02  0.94579725643E+02  0.47000000000E+01 0.  1.
          5    1    4    4  503    0  0.44975817027E+02 -0.10252923610E+02  0.14879895533E+02  0.48697513806E+02  0.47000000000E+01 0. -1.
         -5    1    4    4    0  503 -0.27119731326E+02  0.33051649145E+02 -0.36483210351E+02  0.56400407587E+02  0.47000000000E+01 0.  1.
<mgrwt>
<rscale>  0 0.10080410E+03</rscale>
<asrwt>0</asrwt>
<pdfrwt beam="1">  1        1 0.94591937E-02 0.10285363E+03</pdfrwt>
<pdfrwt beam="2">  1       -1 0.27294876E-01 0.10285363E+03</pdfrwt>
<totfact> 0.76705609E+03</totfact>
</mgrwt>
</event>
<event>
 8    1  0.6836165E-004  0.1253343E+03  0.7546771E-02  0.1236584E+00
         -1   -1    0    0    0  501 -0.00000000000E+00  0.00000000000E+00  0.20145177078E+03  0.20145177078E+03  0.00000000000E+00 0.  1.
          1   -1    0    0  501    0  0.00000000000E+00 -0.00000000000E+00 -0.20547103213E+03  0.20547103213E+03  0.00000000000E+00 0. -1.
         23    2    1    2    0    0 -0.57481367686E+02  0.55615419623E+02 -0.16424879427E+03  0.20660677885E+03  0.96496176699E+02 0.  0.
         23    2    1    2    0    0  0.57481367686E+02 -0.55615419623E+02  0.16022953291E+03  0.20031602406E+03  0.89754240831E+02 0.  0.
          5    1    4    4  502    0  0.56381167099E+02 -0.28895593740E+02  0.35723763077E+02  0.72883939173E+02  0.47000000000E+01 0. -1.
         -5    1    3    3    0  503 -0.53018098741E+02  0.21515528066E+02 -0.24168305681E+02  0.62289916853E+02  0.47000000000E+01 0.  1.
          5    1    3    3  503    0 -0.44632689453E+01  0.34099891557E+02 -0.14008048859E+03  0.14431686200E+03  0.47000000000E+01 0. -1.
         -5    1    4    4    0  502  0.11002005875E+01 -0.26719825883E+02  0.12450576983E+03  0.12743208489E+03  0.47000000000E+01 0.  1.
<mgrwt>
<rscale>  0 0.12403587E+03</rscale>
<asrwt>0</asrwt>
<pdfrwt beam="1">  1        1 0.31610928E-01 0.12533433E+03</pdfrwt>
<pdfrwt beam="2">  1       -1 0.30992580E-01 0.12533433E+03</pdfrwt>
<totfact> 0.13451336E+03</totfact>
</mgrwt>
</event>
<event>
 8    1  0.6836165E-004  0.1091045E+03  0.7546771E-02  0.1265135E+00
         -2   -1    0    0    0  501 -0.00000000000E+00  0.00000000000E+00  0.20154135838E+02  0.20154135838E+02  0.00000000000E+00 0.  1.
          2   -1    0    0  501    0  0.00000000000E+00 -0.00000000000E+00 -0.59576566597E+03  0.59576566597E+03  0.00000000000E+00 0. -1.
         23    2    1    2    0    0  0.34365500647E+02  0.49615768656E+02 -0.20324778200E+03  0.22790103914E+03  0.83585349304E+02 0.  0.
         23    2    1    2    0    0 -0.34365500647E+02 -0.49615768656E+02 -0.37236374813E+03  0.38801876267E+03  0.90890522757E+02 0.  0.
          5    1    3    3  502    0 -0.32254020260E+01  0.36603606625E+02 -0.23786986240E+02  0.44024288189E+02  0.47000000000E+01 0. -1.
         -5    1    4    4    0  503 -0.50378120587E+02  0.51620293058E+01 -0.14943141111E+03  0.15784941624E+03  0.47000000000E+01 0.  1.
          5    1    4    4  503    0  0.16012619940E+02 -0.54777797961E+02 -0.22293233701E+03  0.23016934642E+03  0.47000000000E+01 0. -1.
         -5    1    3    3    0  502  0.37590902673E+02  0.13012162031E+02 -0.17946079577E+03  0.18387675095E+03  0.47000000000E+01 0.  1.
<mgrwt>
<rscale>  0 0.10757090E+03</rscale>
<asrwt>0</asrwt>
<pdfrwt beam="1">  1        2 0.91656253E-01 0.10910453E+03</pdfrwt>
<pdfrwt beam="2">  1       -2 0.31006364E-02 0.10910453E+03</pdfrwt>
<totfact> 0.19003375E+04</totfact>
</mgrwt>
</event>
<event>
 8    1  0.6836165E-004  0.9411811E+02  0.7546771E-02  0.1299575E+00
          3   -1    0    0  501    0  0.00000000000E+00  0.00000000000E+00  0.37900274711E+03  0.37900274711E+03  0.00000000000E+00 0. -1.
         -3   -1    0    0    0  501 -0.00000000000E+00 -0.00000000000E+00 -0.26945486544E+02  0.26945486544E+02  0.00000000000E+00 0.  1.
         23    2    1    2    0    0  0.13418129204E+02 -0.19268870815E+02  0.26452762185E+03  0.27741942145E+03  0.80220552861E+02 0.  0.
         23    2    1    2    0    0 -0.13418129204E+02  0.19268870815E+02  0.87529638716E+02  0.12852881221E+03  0.91142099710E+02 0.  0.
          5    1    3    3  502    0  0.35874353053E+02  0.76004167222E+01  0.64920232447E+02  0.74709183654E+02  0.47000000000E+01 0. -1.
         -5    1    3    3    0  502 -0.22456223849E+02 -0.26869287537E+02  0.19960738941E+03  0.20271023780E+03  0.47000000000E+01 0.  1.
          5    1    4    4  503    0 -0.33117586676E+02  0.31388483725E+02  0.93533044093E+02  0.10417548558E+03  0.47000000000E+01 0. -1.
         -5    1    4    4    0  503  0.19699457472E+02 -0.12119612910E+02 -0.60034053773E+01  0.24353326630E+02  0.47000000000E+01 0.  1.
<mgrwt>
<rscale>  0 0.91366857E+02</rscale>
<asrwt>0</asrwt>
<pdfrwt beam="1">  1        3 0.58308111E-01 0.94118106E+02</pdfrwt>
<pdfrwt beam="2">  1       -3 0.41454597E-02 0.94118106E+02</pdfrwt>
<totfact> 0.19216502E+03</totfact>
</mgrwt>
</event>
<event>
 8    1  0.6836165E-004  0.9254887E+02  0.7546771E-02  0.1297793E+00
         -3   -1    0    0    0  501 -0.00000000000E+00  0.00000000000E+00  0.28345319935E+03  0.28345319935E+03  0.00000000000E+00 0.  1.
          3   -1    0    0  501    0  0.00000000000E+00 -0.00000000000E+00 -0.67596151966E+02  0.67596151966E+02  0.00000000000E+00 0. -1.
         23    2    1    2    0    0 -0.30245032514E+01 -0.43276728620E+01  0.23984615459E+03  0.25708261590E+03  0.92398144761E+02 0.  0.
         23    2    1    2    0    0  0.30245032514E+01  0.43276728620E+01 -0.23989107206E+02  0.93966735413E+02  0.90699469278E+02 0.  0.
          5    1    4    4  502    0  0.44826832425E+02  0.98122337874E+01 -0.22974321254E+02  0.51532846557E+02  0.47000000000E+01 0. -1.
         -5    1    4    4    0  502 -0.41802329174E+02 -0.54845609255E+01 -0.10147859524E+01  0.42433888856E+02  0.47000000000E+01 0.  1.
          5    1    3    3  503    0 -0.36526631218E+02  0.13666722538E+02  0.50926808348E+02  0.64316435703E+02  0.47000000000E+01 0. -1.
         -5    1    3    3    0  503  0.33502127966E+02 -0.17994395400E+02  0.18891934624E+03  0.19276618020E+03  0.47000000000E+01 0.  1.
<mgrwt>
<rscale>  0 0.92121962E+02</rscale>
<asrwt>0</asrwt>
<pdfrwt beam="1">  1        3 0.10399408E-01 0.92548871E+02</pdfrwt>
<pdfrwt beam="2">  1       -3 0.43608184E-01 0.92548871E+02</pdfrwt>
<totfact> 0.78571697E+02</totfact>
</mgrwt>
</event>
<event>
 8    1  0.6836165E-004  0.1017309E+03  0.7546771E-02  0.1276776E+00
          2   -1    0    0  501    0  0.00000000000E+00  0.00000000000E+00  0.27098783717E+03  0.27098783717E+03  0.00000000000E+00 0. -1.
         -2   -1    0    0    0  501 -0.00000000000E+00 -0.00000000000E+00 -0.72943114108E+02  0.72943114108E+02  0.00000000000E+00 0.  1.
         23    2    1    2    0    0  0.41753859856E+02  0.78930897918E+01 -0.19811213994E+02  0.10349304166E+03  0.92263968006E+02 0.  0.
         23    2    1    2    0    0 -0.41753859856E+02 -0.78930897918E+01  0.21785593706E+03  0.24043790962E+03  0.92431019647E+02 0.  0.
          5    1    3    3  502    0  0.43765537059E+00 -0.29183127273E+02  0.19405817955E+02  0.35362723738E+02  0.47000000000E+01 0. -1.
         -5    1    3    3    0  502  0.41316204486E+02  0.37076217065E+02 -0.39217031949E+02  0.68130317920E+02  0.47000000000E+01 0.  1.
          5    1    4    4  503    0 -0.68157909843E+02 -0.21539692268E+02  0.15445906157E+03  0.17026200609E+03  0.47000000000E+01 0. -1.
         -5    1    4    4    0  503  0.26404049986E+02  0.13646602476E+02  0.63396875488E+02  0.70175903531E+02  0.47000000000E+01 0.  1.
<mgrwt>
<rscale>  0 0.10169295E+03</rscale>
<asrwt>0</asrwt>
<pdfrwt beam="1">  1        2 0.41690436E-01 0.10173092E+03</pdfrwt>
<pdfrwt beam="2">  1       -2 0.11222018E-01 0.10173092E+03</pdfrwt>
<totfact> 0.62937058E+03</totfact>
</mgrwt>
</event>
<event>
 8    1  0.6836165E-004  0.1249529E+03  0.7546771E-02  0.1235429E+00
         -4   -1    0    0    0  501 -0.00000000000E+00  0.00000000000E+00  0.90547244498E+03  0.90547244498E+03  0.00000000000E+00 0.  1.
          4   -1    0    0  501    0  0.00000000000E+00 -0.00000000000E+00 -0.17258774382E+02  0.17258774382E+02  0.00000000000E+00 0. -1.
         23    2    1    2    0    0 -0.66820679974E+02  0.42660946053E+02  0.40754749915E+03  0.42627242819E+03  0.96582914560E+02 0.  0.
         23    2    1    2    0    0  0.66820679974E+02 -0.42660946053E+02  0.48066617145E+03  0.49645879117E+03  0.95636830577E+02 0.  0.
          5    1    3    3  502    0 -0.83820063535E+02  0.61842933176E+01  0.28762908272E+03  0.29969422377E+03  0.47000000000E+01 0. -1.
         -5    1    3    3    0  502  0.16999383560E+02  0.36476652735E+02  0.11991841642E+03  0.12657820442E+03  0.47000000000E+01 0.  1.
          5    1    4    4  503    0  0.14904507701E+01 -0.56819943125E+02  0.23428047210E+03  0.24112270110E+03  0.47000000000E+01 0. -1.
         -5    1    4    4    0  503  0.65330229204E+02  0.14158997072E+02  0.24638569935E+03  0.25533609007E+03  0.47000000000E+01 0.  1.
<mgrwt>
<rscale>  0 0.12477001E+03</rscale>
<asrwt>0</asrwt>
<pdfrwt beam="1">  1        4 0.26551968E-02 0.12495287E+03</pdfrwt>
<pdfrwt beam="2">  1       -4 0.13930342E+00 0.12495287E+03</pdfrwt>
<totfact> 0.41196828E+02</totfact>
</mgrwt>
</event>
<event>
 8    1  0.6836165E-004  0.1000965E+03  0.7546771E-02  0.1282727E+00
          2   -1    0    0  501    0  0.00000000000E+00  0.00000000000E+00  0.41565331230E+02  0.41565331230E+02  0.00000000000E+00 0. -1.
         -2   -1    0    0    0  501 -0.00000000000E+00 -0.00000000000E+00 -0.24015580625E+03  0.24015580625E+03  0.00000000000E+00 0.  1.
         23    2    1    2    0    0  0.39505626236E+02 -0.25947360976E+02 -0.67172825804E+02  0.11652459141E+03  0.82654895994E+02 0.  0.
         23    2    1    2    0    0 -0.39505626236E+02  0.25947360976E+02 -0.13141764922E+03  0.16519654607E+03  0.88234575202E+02 0.  0.
          5    1    3    3  502    0  0.52527677975E+02  0.12053010934E+02 -0.45214244561E+02  0.70504254746E+02  0.47000000000E+01 0. -1.
         -5    1    4    4    0  503 -0.55158980788E+02 -0.93038174031E+01 -0.10212535373E+03  0.11653648379E+03  0.47000000000E+01 0.  1.
          5    1    4    4  503    0  0.15653354552E+02  0.35251178380E+02 -0.29292295486E+02  0.48660062276E+02  0.47000000000E+01 0. -1.
         -5    1    3    3    0  502 -0.13022051739E+02 -0.38000371911E+02 -0.21958581243E+02  0.46020336668E+02  0.47000000000E+01 0.  1.
<mgrwt>
<rscale>  0 0.98852974E+02</rscale>
<asrwt>0</asrwt>
<pdfrwt beam="1">  1        2 0.63946664E-02 0.10009646E+03</pdfrwt>
<pdfrwt beam="2">  1       -2 0.36947047E-01 0.10009646E+03</pdfrwt>
<totfact> 0.72326104E+03</totfact>
</mgrwt>
</event>
<event>
 8    1  0.6836165E-004  0.9902263E+02  0.7546771E-02  0.1283525E+00
         -2   -1    0    0    0  501 -0.00000000000E+00  0.00000000000E+00  0.98108761651E+02  0.98108761651E+02  0.00000000000E+00 0.  1.
          2   -1    0    0  501    0  0.00000000000E+00 -0.00000000000E+00 -0.16842871746E+03  0.16842871746E+03  0.00000000000E+00 0. -1.
         23    2    1    2    0    0 -0.30856703513E+02  0.22995586664E+02  0.50921887056E+02  0.11134864405E+03  0.91238965323E+02 0.  0.
         23    2    1    2    0    0  0.30856703513E+02 -0.22995586664E+02 -0.12124184287E+03  0.15518883506E+03  0.88899138962E+02 0.  0.
          5    1    3    3  502    0  0.29670169870E+02 -0.52549572216E+01  0.70642322158E+01  0.31303784633E+02  0.47000000000E+01 0. -1.
         -5    1    3    3    0  502 -0.60526873384E+02  0.28250543885E+02  0.43857654840E+02  0.80044859420E+02  0.47000000000E+01 0.  1.
          5    1    4    4  503    0  0.60684278368E+02 -0.84173684483E+01 -0.63122436050E+02  0.88090667300E+02  0.47000000000E+01 0. -1.
         -5    1    4    4    0  503 -0.29827574854E+02 -0.14578218215E+02 -0.58119406819E+02  0.67098167762E+02  0.47000000000E+01 0.  1.
<mgrwt>
<rscale>  0 0.98480285E+02</rscale>
<asrwt>0</asrwt>
<pdfrwt beam="1">  1        2 0.25912110E-01 0.99022634E+02</pdfrwt>
<pdfrwt beam="2">  1       -2 0.15093656E-01 0.99022634E+02</pdfrwt>
<totfact> 0.64955579E+03</totfact>
</mgrwt>
</event>
<event>
 8    1  0.6836165E-004  0.4100946E+03  0.7546771E-02  0.1040354E+00
          2   -1    0    0  501    0  0.00000000000E+00  0.00000000000E+00  0.16229297834E+04  0.16229297834E+04  0.00000000000E+00 0. -1.
         -2   -1    0    0    0  501 -0.00000000000E+00 -0.00000000000E+00 -0.55007967423E+03  0.55007967423E+03  0.00000000000E+00 0.  1.
         23    2    1    2    0    0  0.39895950344E+03  0.21370341110E+02  0.15153230737E+04  0.15698348846E+04  0.92477944753E+02 0.  0.
         23    2    1    2    0    0 -0.39895950344E+03 -0.21370341110E+02 -0.44247296459E+03  0.60317457301E+03  0.91716215968E+02 0.  0.
          5    1    4    4  502    0 -0.32714499461E+03 -0.27399265245E+02 -0.40637899504E+03  0.52243712047E+03  0.47000000000E+01 0. -1.
         -5    1    4    4    0  502 -0.71814508834E+02  0.60289241357E+01 -0.36093969541E+02  0.80737452539E+02  0.47000000000E+01 0.  1.
          5    1    3    3  503    0  0.17873952675E+03 -0.36052643675E+02  0.66046318534E+03  0.68518706987E+03  0.47000000000E+01 0. -1.
         -5    1    3    3    0  503  0.22021997670E+03  0.57422984784E+02  0.85485988841E+03  0.88464781474E+03  0.47000000000E+01 0.  1.
<mgrwt>
<rscale>  0 0.41005178E+03</rscale>
<asrwt>0</asrwt>
<pdfrwt beam="1">  1        2 0.24968150E+00 0.41009456E+03</pdfrwt>
<pdfrwt beam="2">  1       -2 0.84627643E-01 0.41009456E+03</pdfrwt>
<totfact> 0.14384506E+01</totfact>
</mgrwt>
</event>
<event>
 8    1  0.6836165E-004  0.1095971E+03  0.7546771E-02  0.1261966E+00
          2   -1    0    0  501    0  0.00000000000E+00  0.00000000000E+00  0.26959081412E+03  0.26959081412E+03  0.00000000000E+00 0. -1.
         -2   -1    0    0    0  501 -0.00000000000E+00 -0.00000000000E+00 -0.73750410391E+02  0.73750410391E+02  0.00000000000E+00 0.  1.
         23    2    1    2    0    0  0.19718681075E+02  0.54459885494E+02  0.20733494245E+03  0.23451928370E+03  0.93041982762E+02 0.  0.
         23    2    1    2    0    0 -0.19718681075E+02 -0.54459885494E+02 -0.11494538713E+02  0.10882194082E+03  0.91407794368E+02 0.  0.
          5    1    3    3  502    0  0.56683055463E+02  0.31663901975E+02  0.10975064924E+03  0.12760433564E+03  0.47000000000E+01 0. -1.
         -5    1    3    3    0  502 -0.36964374388E+02  0.22795983518E+02  0.97584293202E+02  0.10691494806E+03  0.47000000000E+01 0.  1.
          5    1    4    4  503    0  0.44041981400E+01 -0.72521206618E+02 -0.22802161403E+02  0.76293845986E+02  0.47000000000E+01 0. -1.
         -5    1    4    4    0  503 -0.24122879215E+02  0.18061321124E+02  0.11307622690E+02  0.32528094830E+02  0.47000000000E+01 0.  1.
<mgrwt>
<rscale>  0 0.10924944E+03</rscale>
<asrwt>0</asrwt>
<pdfrwt beam="1">  1        2 0.41475509E-01 0.10959706E+03</pdfrwt>
<pdfrwt beam="2">  1       -2 0.11346217E-01 0.10959706E+03</pdfrwt>
<totfact> 0.62523104E+03</totfact>
</mgrwt>
</event>
<event>
 8    1  0.6836165E-004  0.9718597E+02  0.7546771E-02  0.1289295E+00
          4   -1    0    0  501    0  0.00000000000E+00  0.00000000000E+00  0.60545713413E+02  0.60545713413E+02  0.00000000000E+00 0. -1.
         -4   -1    0    0    0  501 -0.00000000000E+00 -0.00000000000E+00 -0.31200677037E+03  0.31200677037E+03  0.00000000000E+00 0.  1.
         23    2    1    2    0    0 -0.29656223887E+01  0.13533163520E+02 -0.26256187730E+03  0.27997116233E+03  0.96193403610E+02 0.  0.
         23    2    1    2    0    0  0.29656223887E+01 -0.13533163520E+02  0.11100820337E+02  0.92581321452E+02  0.90863256813E+02 0.  0.
          5    1    3    3  502    0 -0.16937195781E+02 -0.35389559712E+02 -0.66437047977E+02  0.77299811652E+02  0.47000000000E+01 0. -1.
         -5    1    4    4    0  503  0.34092040148E+02  0.15848661244E+02 -0.16615522374E+02  0.41371643048E+02  0.47000000000E+01 0.  1.
          5    1    4    4  503    0 -0.31126417760E+02 -0.29381824764E+02  0.27716342711E+02  0.51209678404E+02  0.47000000000E+01 0. -1.
         -5    1    3    3    0  502  0.13971573393E+02  0.48922723232E+02 -0.19612482932E+03  0.20267135068E+03  0.47000000000E+01 0.  1.
<mgrwt>
<rscale>  0 0.95840127E+02</rscale>
<asrwt>0</asrwt>
<pdfrwt beam="1">  1        4 0.93147251E-02 0.97185968E+02</pdfrwt>
<pdfrwt beam="2">  1       -4 0.48001042E-01 0.97185968E+02</pdfrwt>
<totfact> 0.55693625E+02</totfact>
</mgrwt>
</event>
<event>
 8    1  0.6836165E-004  0.1074581E+03  0.7546771E-02  0.1270666E+00
         -4   -1    0    0    0  501 -0.00000000000E+00  0.00000000000E+00  0.18560561617E+03  0.18560561617E+03  0.00000000000E+00 0.  1.
          4   -1    0    0  501    0  0.00000000000E+00 -0.00000000000E+00 -0.57285387542E+02  0.57285387542E+02  0.00000000000E+00 0. -1.
         23    2    1    2    0    0 -0.58699860201E+01 -0.39382649607E+02  0.44741318713E+02  0.10675625074E+03  0.88372290035E+02 0.  0.
         23    2    1    2    0    0  0.58699860201E+01  0.39382649607E+02  0.83578909911E+02  0.13613475297E+03  0.99808751910E+02 0.  0.
          5    1    3    3  502    0  0.33023946658E+02 -0.14178738122E+01  0.39843729683E+02  0.51982729960E+02  0.47000000000E+01 0. -1.
         -5    1    3    3    0  502 -0.38893932679E+02 -0.37964775795E+02  0.48975890297E+01  0.54773520780E+02  0.47000000000E+01 0.  1.
          5    1    4    4  503    0  0.36349739473E+02  0.31841521364E+02  0.91348188879E+02  0.10344934825E+03  0.47000000000E+01 0. -1.
         -5    1    4    4    0  503 -0.30479753453E+02  0.75411282433E+01 -0.77692789679E+01  0.32685404715E+02  0.47000000000E+01 0.  1.
<mgrwt>
<rscale>  0 0.10472299E+03</rscale>
<asrwt>0</asrwt>
<pdfrwt beam="1">  1        4 0.88131366E-02 0.10745807E+03</pdfrwt>
<pdfrwt beam="2">  1       -4 0.28554710E-01 0.10745807E+03</pdfrwt>
<totfact> 0.17084370E+03</totfact>
</mgrwt>
</event>
<event>
 8    1  0.6836165E-004  0.9349714E+02  0.7546771E-02  0.1295485E+00
         -1   -1    0    0    0  501 -0.00000000000E+00  0.00000000000E+00  0.41739253879E+02  0.41739253879E+02  0.00000000000E+00 0.  1.
          1   -1    0    0  501    0  0.00000000000E+00 -0.00000000000E+00 -0.23286646184E+03  0.23286646184E+03  0.00000000000E+00 0. -1.
         23    2    1    2    0    0 -0.18374218967E+02 -0.20746212177E+01 -0.49644928486E+02  0.10585997558E+03  0.91650420234E+02 0.  0.
         23    2    1    2    0    0  0.18374218967E+02  0.20746212177E+01 -0.14148227948E+03  0.16874574015E+03  0.90088697598E+02 0.  0.
          5    1    4    4  502    0  0.30390231295E+02  0.37815674444E+02 -0.50686628466E+02  0.70319383508E+02  0.47000000000E+01 0. -1.
         -5    1    3    3    0  503  0.10486927060E+01 -0.24234653982E+02  0.18895694578E+02  0.31105553903E+02  0.47000000000E+01 0.  1.
          5    1    3    3  503    0 -0.19422911673E+02  0.22160032765E+02 -0.68540623064E+02  0.74754421675E+02  0.47000000000E+01 0. -1.
         -5    1    4    4    0  502 -0.12016012327E+02 -0.35741053226E+02 -0.90795651013E+02  0.98426356637E+02  0.47000000000E+01 0.  1.
<mgrwt>
<rscale>  0 0.93112181E+02</rscale>
<asrwt>0</asrwt>
<pdfrwt beam="1">  1        1 0.35825610E-01 0.93497142E+02</pdfrwt>
<pdfrwt beam="2">  1       -1 0.64214235E-02 0.93497142E+02</pdfrwt>
<totfact> 0.13208888E+04</totfact>
</mgrwt>
</event>
<event>
 8    1  0.6836165E-004  0.9785381E+02  0.7546771E-02  0.1284922E+00
          2   -1    0    0  501    0  0.00000000000E+00  0.00000000000E+00  0.73818196418E+03  0.73818196418E+03  0.00000000000E+00 0. -1.
         -2   -1    0    0    0  501 -0.00000000000E+00 -0.00000000000E+00 -0.14671526599E+02  0.14671526599E+02  0.00000000000E+00 0.  1.
         23    2    1    2    0    0  0.19903425841E+02  0.19675340808E+02  0.23333103551E+03  0.25301925067E+03  0.93766218246E+02 0.  0.
         23    2    1    2    0    0 -0.19903425841E+02 -0.19675340808E+02  0.49017940208E+03  0.49983424011E+03  0.93675802470E+02 0.  0.
          5    1    3    3  502    0  0.31009516492E+02 -0.18011536214E+02  0.19358505177E+03  0.19693467906E+03  0.47000000000E+01 0. -1.
         -5    1    4    4    0  503 -0.37974886459E+02  0.27435829999E+02  0.23322217341E+03  0.23792748673E+03  0.47000000000E+01 0.  1.
          5    1    4    4  503    0  0.18071460618E+02 -0.47111170807E+02  0.25695722867E+03  0.26190675338E+03  0.47000000000E+01 0. -1.
         -5    1    3    3    0  502 -0.11106090651E+02  0.37686877023E+02  0.39745983741E+02  0.56084571611E+02  0.47000000000E+01 0.  1.
<mgrwt>
<rscale>  0 0.97832149E+02</rscale>
<asrwt>0</asrwt>
<pdfrwt beam="1">  1        2 0.11356643E+00 0.97853815E+02</pdfrwt>
<pdfrwt beam="2">  1       -2 0.22571585E-02 0.97853815E+02</pdfrwt>
<totfact> 0.23294665E+04</totfact>
</mgrwt>
</event>
<event>
 8    1  0.6836165E-004  0.3425088E+03  0.7546771E-02  0.1065864E+00
         -1   -1    0    0    0  501 -0.00000000000E+00  0.00000000000E+00  0.48963579508E+03  0.48963579508E+03  0.00000000000E+00 0.  1.
          1   -1    0    0  501    0  0.00000000000E+00 -0.00000000000E+00 -0.31835617459E+03  0.31835617459E+03  0.00000000000E+00 0. -1.
         23    2    1    2    0    0  0.32202600235E+03  0.68209768223E+02  0.28758300159E+03  0.44627558082E+03  0.90025510635E+02 0.  0.
         23    2    1    2    0    0 -0.32202600235E+03 -0.68209768223E+02 -0.11630338110E+03  0.36171638885E+03  0.94651734470E+02 0.  0.
          5    1    3    3  502    0  0.13677947007E+03 -0.74910312592E+01  0.83946603585E+02  0.16072915490E+03  0.47000000000E+01 0. -1.
         -5    1    4    4    0  503 -0.73844004276E+02 -0.23725136340E+02 -0.71484051581E+02  0.10558351525E+03  0.47000000000E+01 0.  1.
          5    1    4    4  503    0 -0.24818199807E+03 -0.44484631882E+02 -0.44819329520E+02  0.25613287360E+03  0.47000000000E+01 0. -1.
         -5    1    3    3    0  502  0.18524653228E+03  0.75700799482E+02  0.20363639800E+03  0.28554642592E+03  0.47000000000E+01 0.  1.
<mgrwt>
<rscale>  0 0.34219599E+03</rscale>
<asrwt>0</asrwt>
<pdfrwt beam="1">  1        1 0.48977873E-01 0.34250879E+03</pdfrwt>
<pdfrwt beam="2">  1       -1 0.75328584E-01 0.34250879E+03</pdfrwt>
<totfact> 0.15021843E+02</totfact>
</mgrwt>
</event>
<event>
 8    1  0.6836165E-004  0.9575277E+02  0.7546771E-02  0.1290622E+00
          2   -1    0    0  501    0  0.00000000000E+00  0.00000000000E+00  0.34087697475E+03  0.34087697475E+03  0.00000000000E+00 0. -1.
         -2   -1    0    0    0  501 -0.00000000000E+00 -0.00000000000E+00 -0.27625158598E+02  0.27625158598E+02  0.00000000000E+00 0.  1.
         23    2    1    2    0    0 -0.14996676482E+02  0.62153049956E+01  0.19485089167E+03  0.21622813259E+03  0.92326621374E+02 0.  0.
         23    2    1    2    0    0  0.14996676482E+02 -0.62153049956E+01  0.11840092447E+03  0.15227400076E+03  0.94366636417E+02 0.  0.
          5    1    3    3  502    0 -0.28654253720E+02  0.42083186945E+02  0.14059865392E+03  0.14960659198E+03  0.47000000000E+01 0. -1.
         -5    1    4    4    0  503  0.95377604163E+01  0.20843651528E+02  0.12183610846E+03  0.12406270192E+03  0.47000000000E+01 0.  1.
          5    1    4    4  503    0  0.54589160652E+01 -0.27058956524E+02 -0.34351839918E+01  0.28211298833E+02  0.47000000000E+01 0. -1.
         -5    1    3    3    0  502  0.13657577238E+02 -0.35867881950E+02  0.54252237752E+02  0.66621540606E+02  0.47000000000E+01 0.  1.
<mgrwt>
<rscale>  0 0.95246302E+02</rscale>
<asrwt>0</asrwt>
<pdfrwt beam="1">  1        2 0.52442609E-01 0.95752767E+02</pdfrwt>
<pdfrwt beam="2">  1       -2 0.42500246E-02 0.95752767E+02</pdfrwt>
<totfact> 0.21526265E+04</totfact>
</mgrwt>
</event>
<event>
 8    1  0.6836165E-004  0.1071919E+03  0.7546771E-02  0.1269646E+00
         -1   -1    0    0    0  501 -0.00000000000E+00  0.00000000000E+00  0.31331538063E+02  0.31331538063E+02  0.00000000000E+00 0.  1.
          1   -1    0    0  501    0  0.00000000000E+00 -0.00000000000E+00 -0.36961085807E+03  0.36961085807E+03  0.00000000000E+00 0. -1.
         23    2    1    2    0    0  0.11285779861E+02  0.36355819194E+02 -0.10786158246E+03  0.14681164556E+03  0.92034905797E+02 0.  0.
         23    2    1    2    0    0 -0.11285779861E+02 -0.36355819194E+02 -0.23041773755E+03  0.25413075057E+03  0.10020474138E+03 0.  0.
          5    1    4    4  502    0 -0.11127591148E+02  0.30511065394E+02 -0.12475944181E+03  0.12900293298E+03  0.47000000000E+01 0. -1.
         -5    1    4    4    0  502 -0.15818871295E+00 -0.66866884588E+02 -0.10565829574E+03  0.12512781760E+03  0.47000000000E+01 0.  1.
          5    1    3    3  503    0 -0.24082424950E+02  0.46696702600E+02 -0.92763532932E+02  0.10671320568E+03  0.47000000000E+01 0. -1.
         -5    1    3    3    0  503  0.35368204811E+02 -0.10340883406E+02 -0.15098049532E+02  0.40098439880E+02  0.47000000000E+01 0.  1.
<mgrwt>
<rscale>  0 0.10524051E+03</rscale>
<asrwt>0</asrwt>
<pdfrwt beam="1">  1        1 0.56863210E-01 0.10719191E+03</pdfrwt>
<pdfrwt beam="2">  1       -1 0.48202366E-02 0.10719191E+03</pdfrwt>
<totfact> 0.11573499E+04</totfact>
</mgrwt>
</event>
<event>
 8    1  0.6836165E-004  0.1553689E+03  0.7546771E-02  0.1195111E+00
         -1   -1    0    0    0  501 -0.00000000000E+00  0.00000000000E+00  0.29461725913E+02  0.29461725913E+02  0.00000000000E+00 0.  1.
          1   -1    0    0  501    0  0.00000000000E+00 -0.00000000000E+00 -0.80115607455E+03  0.80115607455E+03  0.00000000000E+00 0. -1.
         23    2    1    2    0    0 -0.12070184353E+03  0.33441525917E+02 -0.39543977858E+03  0.42354656112E+03  0.85625932186E+02 0.  0.
         23    2    1    2    0    0  0.12070184353E+03 -0.33441525917E+02 -0.37625457006E+03  0.40707123935E+03  0.91935965362E+02 0.  0.
          5    1    4    4  502    0  0.29030188007E+02 -0.53825187437E+02 -0.14683134338E+03  0.15912710648E+03  0.47000000000E+01 0. -1.
         -5    1    3    3    0  503 -0.27365772818E+02 -0.20414652535E+02 -0.43783703443E+02  0.55720249884E+02  0.47000000000E+01 0.  1.
          5    1    3    3  503    0 -0.93336070714E+02  0.53856178452E+02 -0.35165607514E+03  0.36782631123E+03  0.47000000000E+01 0. -1.
         -5    1    4    4    0  502  0.91671655525E+02  0.20383661520E+02 -0.22942322668E+03  0.24794413287E+03  0.47000000000E+01 0.  1.
<mgrwt>
<rscale>  0 0.15444862E+03</rscale>
<asrwt>0</asrwt>
<pdfrwt beam="1">  1        1 0.12325479E+00 0.15536889E+03</pdfrwt>
<pdfrwt beam="2">  1       -1 0.45325728E-02 0.15536889E+03</pdfrwt>
<totfact> 0.45895802E+03</totfact>
</mgrwt>
</event>
<event>
 8    1  0.6836165E-004  0.1075267E+03  0.7546771E-02  0.1266745E+00
          4   -1    0    0  501    0  0.00000000000E+00  0.00000000000E+00  0.31317852126E+03  0.31317852126E+03  0.00000000000E+00 0. -1.
         -4   -1    0    0    0  501 -0.00000000000E+00 -0.00000000000E+00 -0.90056700077E+02  0.90056700077E+02  0.00000000000E+00 0.  1.
         23    2    1    2    0    0 -0.22896994914E+02 -0.49787992696E+02 -0.44200246985E+02  0.11625684387E+03  0.92514189837E+02 0.  0.
         23    2    1    2    0    0  0.22896994914E+02  0.49787992696E+02  0.26732206817E+03  0.28697837747E+03  0.88839092798E+02 0.  0.
          5    1    3    3  502    0  0.17326862382E+01  0.21699701632E+02 -0.32800447532E+02  0.39646419899E+02  0.47000000000E+01 0. -1.
         -5    1    4    4    0  503 -0.33808609744E+02  0.12531251693E+02  0.91456898567E+02  0.98420062270E+02  0.47000000000E+01 0.  1.
          5    1    4    4  503    0  0.56705604657E+02  0.37256741004E+02  0.17586516960E+03  0.18855831520E+03  0.47000000000E+01 0. -1.
         -5    1    3    3    0  502 -0.24629681152E+02 -0.71487694328E+02 -0.11399799453E+02  0.76610423974E+02  0.47000000000E+01 0.  1.
<mgrwt>
<rscale>  0 0.10673163E+03</rscale>
<asrwt>0</asrwt>
<pdfrwt beam="1">  1        4 0.48181311E-01 0.10752670E+03</pdfrwt>
<pdfrwt beam="2">  1       -4 0.13854877E-01 0.10752670E+03</pdfrwt>
<totfact> 0.28850212E+02</totfact>
</mgrwt>
</event>
<event>
 8    1  0.6836165E-004  0.9818098E+02  0.7546771E-02  0.1288632E+00
          3   -1    0    0  501    0  0.00000000000E+00  0.00000000000E+00  0.61901938972E+02  0.61901938972E+02  0.00000000000E+00 0. -1.
         -3   -1    0    0    0  501 -0.00000000000E+00 -0.00000000000E+00 -0.14428900381E+03  0.14428900381E+03  0.00000000000E+00 0.  1.
         23    2    1    2    0    0 -0.71065900109E+01  0.27552814688E+02 -0.34907550499E+02  0.10420192714E+03  0.93967245995E+02 0.  0.
         23    2    1    2    0    0  0.71065900109E+01 -0.27552814688E+02 -0.47479514340E+02  0.10198901564E+03  0.85660923474E+02 0.  0.
          5    1    3    3  502    0 -0.63621094585E+01 -0.22783825335E+02 -0.46451840107E+02  0.52339684590E+02  0.47000000000E+01 0. -1.
         -5    1    3    3    0  502 -0.74448055247E+00  0.50336640024E+02  0.11544289608E+02  0.51862242554E+02  0.47000000000E+01 0.  1.
          5    1    4    4  503    0  0.37380037424E+02 -0.34758609636E+02 -0.86128230426E+01  0.51977868967E+02  0.47000000000E+01 0. -1.
         -5    1    4    4    0  503 -0.30273447413E+02  0.72057949477E+01 -0.38866691297E+02  0.50011146672E+02  0.47000000000E+01 0.  1.
<mgrwt>
<rscale>  0 0.96138704E+02</rscale>
<asrwt>0</asrwt>
<pdfrwt beam="1">  1        3 0.95233753E-02 0.98180978E+02</pdfrwt>
<pdfrwt beam="2">  1       -3 0.22198308E-01 0.98180978E+02</pdfrwt>
<totfact> 0.31925115E+03</totfact>
</mgrwt>
</event>
<event>
 8    1  0.6836165E-004  0.1046647E+03  0.7546771E-02  0.1271117E+00
          4   -1    0    0  501    0  0.00000000000E+00  0.00000000000E+00  0.21255767323E+02  0.21255767323E+02  0.00000000000E+00 0.  1.
         -4   -1    0    0    0  501 -0.00000000000E+00 -0.00000000000E+00 -0.86426368301E+03  0.86426368301E+03  0.00000000000E+00 0. -1.
         23    2    1    2    0    0  0.34065256444E+02 -0.41962650387E+02 -0.70495949047E+03  0.71268688117E+03  0.89629245585E+02 0.  0.
         23    2    1    2    0    0 -0.34065256444E+02  0.41962650387E+02 -0.13804842522E+03  0.17283256917E+03  0.88839313001E+02 0.  0.
          5    1    3    3  502    0  0.98782782763E+01  0.27957544173E+02 -0.23646052046E+03  0.23835870530E+03  0.47000000000E+01 0.  1.
         -5    1    3    3    0  502  0.24186978168E+02 -0.69920194560E+02 -0.46849897001E+03  0.47432817586E+03  0.47000000000E+01 0. -1.
          5    1    4    4  503    0 -0.54492115778E+02  0.14360667593E+00 -0.55310633680E+02  0.77786679470E+02  0.47000000000E+01 0. -1.
         -5    1    4    4    0  503  0.20426859333E+02  0.41819043711E+02 -0.82737791540E+02  0.95045889696E+02  0.47000000000E+01 0.  1.
<mgrwt>
<rscale>  0 0.10449541E+03</rscale>
<asrwt>0</asrwt>
<pdfrwt beam="1">  1        4 0.32701179E-02 0.10466474E+03</pdfrwt>
<pdfrwt beam="2">  1       -4 0.13296365E+00 0.10466474E+03</pdfrwt>
<totfact> 0.32248232E+02</totfact>
</mgrwt>
</event>
<event>
 8    1  0.6836165E-004  0.1309925E+03  0.7546771E-02  0.1226214E+00
          1   -1    0    0  501    0  0.00000000000E+00  0.00000000000E+00  0.60189866275E+03  0.60189866275E+03  0.00000000000E+00 0. -1.
         -1   -1    0    0    0  501 -0.00000000000E+00 -0.00000000000E+00 -0.66329510232E+02  0.66329510232E+02  0.00000000000E+00 0.  1.
         23    2    1    2    0    0  0.76512564847E+02  0.50429327214E+02  0.52025395429E+03  0.53634338953E+03  0.92751091170E+02 0.  0.
         23    2    1    2    0    0 -0.76512564847E+02 -0.50429327214E+02  0.15315198232E+02  0.13188478346E+03  0.93604226337E+02 0.  0.
          5    1    3    3  502    0  0.50813246951E+02 -0.20090294594E+02  0.23867995436E+03  0.24489960518E+03  0.47000000000E+01 0. -1.
         -5    1    3    3    0  502  0.25699317895E+02  0.70519621807E+02  0.28157399993E+03  0.29144378435E+03  0.47000000000E+01 0.  1.
          5    1    4    4  503    0 -0.20098151676E+02 -0.68498139651E+02  0.69930572923E+01  0.71881316673E+02  0.47000000000E+01 0. -1.
         -5    1    4    4    0  503 -0.56414413171E+02  0.18068812437E+02  0.83221409401E+01  0.60003466784E+02  0.47000000000E+01 0.  1.
<mgrwt>
<rscale>  0 0.13084019E+03</rscale>
<asrwt>0</asrwt>
<pdfrwt beam="1">  1        1 0.92599791E-01 0.13099252E+03</pdfrwt>
<pdfrwt beam="2">  1       -1 0.10204540E-01 0.13099252E+03</pdfrwt>
<totfact> 0.20333210E+03</totfact>
</mgrwt>
</event>
<event>
 8    1  0.6836165E-004  0.1062137E+03  0.7546771E-02  0.1272955E+00
         -2   -1    0    0    0  501 -0.00000000000E+00  0.00000000000E+00  0.52074385018E+02  0.52074385018E+02  0.00000000000E+00 0.  1.
          2   -1    0    0  501    0  0.00000000000E+00 -0.00000000000E+00 -0.30159120127E+03  0.30159120127E+03  0.00000000000E+00 0. -1.
         23    2    1    2    0    0 -0.32397693986E+02  0.18669142979E+01 -0.24489866262E+02  0.10900051706E+03  0.10113487641E+03 0.  0.
         23    2    1    2    0    0  0.32397693986E+02 -0.18669142979E+01 -0.22502694999E+03  0.24466506922E+03  0.90392322305E+02 0.  0.
          5    1    3    3  502    0 -0.52436491620E+02  0.35431141671E+02 -0.28221706880E+02  0.69451466455E+02  0.47000000000E+01 0. -1.
         -5    1    3    3    0  502  0.20038797633E+02 -0.33564227373E+02  0.37318406185E+01  0.39549050610E+02  0.47000000000E+01 0.  1.
          5    1    4    4  503    0  0.62958875464E+02 -0.14306337013E+01 -0.17269879713E+03  0.18388265618E+03  0.47000000000E+01 0. -1.
         -5    1    4    4    0  503 -0.30561181477E+02 -0.43628059658E+00 -0.52328152860E+02  0.60782413047E+02  0.47000000000E+01 0.  1.
<mgrwt>
<rscale>  0 0.10357374E+03</rscale>
<asrwt>0</asrwt>
<pdfrwt beam="1">  1        2 0.46398646E-01 0.10621374E+03</pdfrwt>
<pdfrwt beam="2">  1       -2 0.80114438E-02 0.10621374E+03</pdfrwt>
<totfact> 0.95283550E+03</totfact>
</mgrwt>
</event>
<event>
 8    1  0.6836165E-004  0.9856324E+02  0.7546771E-02  0.1283836E+00
          1   -1    0    0  501    0  0.00000000000E+00  0.00000000000E+00  0.88862180238E+03  0.88862180238E+03  0.00000000000E+00 0. -1.
         -1   -1    0    0    0  501 -0.00000000000E+00 -0.00000000000E+00 -0.14873074084E+02  0.14873074084E+02  0.00000000000E+00 0.  1.
         23    2    1    2    0    0  0.98037247929E+01  0.37065932077E+02  0.20286933636E+03  0.22554529613E+03  0.90800421969E+02 0.  0.
         23    2    1    2    0    0 -0.98037247929E+01 -0.37065932077E+02  0.67087939193E+03  0.67794958033E+03  0.89813576995E+02 0.  0.
          5    1    4    4  502    0 -0.41523388659E+02 -0.46694007911E+02  0.49083060499E+03  0.49481440458E+03  0.47000000000E+01 0. -1.
         -5    1    4    4    0  502  0.31719663866E+02  0.96280758345E+01  0.18004878694E+03  0.18313517576E+03  0.47000000000E+01 0.  1.
          5    1    3    3  503    0  0.37694232860E+02 -0.81500765505E+01  0.12697305820E+03  0.13278375822E+03  0.47000000000E+01 0. -1.
         -5    1    3    3    0  503 -0.27890508067E+02  0.45216008627E+02  0.75896278165E+02  0.92761537912E+02  0.47000000000E+01 0.  1.
<mgrwt>
<rscale>  0 0.98335363E+02</rscale>
<asrwt>0</asrwt>
<pdfrwt beam="1">  1        1 0.13671100E+00 0.98563244E+02</pdfrwt>
<pdfrwt beam="2">  1       -1 0.22881659E-02 0.98563244E+02</pdfrwt>
<totfact> 0.10328674E+04</totfact>
</mgrwt>
</event>
<event>
 8    1  0.6836165E-004  0.9585918E+02  0.7546771E-02  0.1289616E+00
          2   -1    0    0  501    0  0.00000000000E+00  0.00000000000E+00  0.68096931104E+03  0.68096931104E+03  0.00000000000E+00 0. -1.
         -2   -1    0    0    0  501 -0.00000000000E+00 -0.00000000000E+00 -0.19136777014E+02  0.19136777014E+02  0.00000000000E+00 0.  1.
         23    2    1    2    0    0 -0.70157172138E+01 -0.27338690596E+02  0.14008833687E+03  0.16974605937E+03  0.91609815261E+02 0.  0.
         23    2    1    2    0    0  0.70157172138E+01  0.27338690596E+02  0.52174419716E+03  0.53036002869E+03  0.90929249812E+02 0.  0.
          5    1    3    3  502    0  0.39424614902E+02 -0.28845929524E+02  0.75265949016E+02  0.89852328804E+02  0.47000000000E+01 0. -1.
         -5    1    3    3    0  502 -0.46440332115E+02  0.15072389276E+01  0.64822387854E+02  0.79893730563E+02  0.47000000000E+01 0.  1.
          5    1    4    4  503    0  0.31157680816E+02  0.46902541943E+02  0.22623946134E+03  0.23318883632E+03  0.47000000000E+01 0. -1.
         -5    1    4    4    0  503 -0.24141963602E+02 -0.19563851347E+02  0.29550473582E+03  0.29717119237E+03  0.47000000000E+01 0.  1.
<mgrwt>
<rscale>  0 0.95696219E+02</rscale>
<asrwt>0</asrwt>
<pdfrwt beam="1">  1        2 0.10476449E+00 0.95859181E+02</pdfrwt>
<pdfrwt beam="2">  1       -2 0.29441201E-02 0.95859181E+02</pdfrwt>
<totfact> 0.17392180E+04</totfact>
</mgrwt>
</event>
<event>
 8    1  0.6836165E-004  0.9790827E+02  0.7546771E-02  0.1292131E+00
          2   -1    0    0  501    0  0.00000000000E+00  0.00000000000E+00  0.24651090931E+02  0.24651090931E+02  0.00000000000E+00 0.  1.
         -2   -1    0    0    0  501 -0.00000000000E+00 -0.00000000000E+00 -0.35847297490E+03  0.35847297490E+03  0.00000000000E+00 0. -1.
         23    2    1    2    0    0 -0.33301950332E+02  0.10785630138E+02 -0.19909860442E+03  0.21658160636E+03  0.77730227165E+02 0.  0.
         23    2    1    2    0    0  0.33301950332E+02 -0.10785630138E+02 -0.13472327955E+03  0.16654245948E+03  0.91436748866E+02 0.  0.
          5    1    3    3  502    0 -0.22407701410E+02  0.34293783046E+02 -0.17835623708E+03  0.18306066192E+03  0.47000000000E+01 0. -1.
         -5    1    4    4    0  503  0.23642156370E+02 -0.29985064342E+02 -0.98060987962E+01  0.39702710424E+02  0.47000000000E+01 0.  1.
          5    1    4    4  503    0  0.96597939617E+01  0.19199434204E+02 -0.12491718075E+03  0.12683974905E+03  0.47000000000E+01 0. -1.
         -5    1    3    3    0  502 -0.10894248922E+02 -0.23508152908E+02 -0.20742367343E+02  0.33520944434E+02  0.47000000000E+01 0.  1.
<mgrwt>
<rscale>  0 0.94577198E+02</rscale>
<asrwt>0</asrwt>
<pdfrwt beam="1">  1        2 0.37924761E-02 0.97908267E+02</pdfrwt>
<pdfrwt beam="2">  1       -2 0.55149681E-01 0.97908267E+02</pdfrwt>
<totfact> 0.65586880E+03</totfact>
</mgrwt>
</event>
<event>
 8    1  0.6836165E-004  0.1718476E+03  0.7546771E-02  0.1176636E+00
          2   -1    0    0  501    0  0.00000000000E+00  0.00000000000E+00  0.50764794872E+02  0.50764794872E+02  0.00000000000E+00 0. -1.
         -2   -1    0    0    0  501 -0.00000000000E+00 -0.00000000000E+00 -0.64105610458E+03  0.64105610458E+03  0.00000000000E+00 0.  1.
         23    2    1    2    0    0 -0.13752656749E+03 -0.38757602266E+02 -0.18002676826E+03  0.24701915282E+03  0.90515833272E+02 0.  0.
         23    2    1    2    0    0  0.13752656749E+03  0.38757602266E+02 -0.41026454146E+03  0.44480174664E+03  0.95477177037E+02 0.  0.
          5    1    4    4  502    0  0.44870711698E+02  0.58781758679E+02 -0.14075428641E+03  0.15906770591E+03  0.47000000000E+01 0. -1.
         -5    1    3    3    0  503 -0.77135278234E+02 -0.56339943988E+02 -0.14817863721E+03  0.17636053686E+03  0.47000000000E+01 0.  1.
          5    1    3    3  503    0 -0.60391289254E+02  0.17582341721E+02 -0.31848131047E+02  0.70658615960E+02  0.47000000000E+01 0. -1.
         -5    1    4    4    0  502  0.92655855790E+02 -0.20024156412E+02 -0.26951025505E+03  0.28573404073E+03  0.47000000000E+01 0.  1.
<mgrwt>
<rscale>  0 0.17116703E+03</rscale>
<asrwt>0</asrwt>
<pdfrwt beam="1">  1        2 0.78099687E-02 0.17184761E+03</pdfrwt>
<pdfrwt beam="2">  1       -2 0.98624013E-01 0.17184761E+03</pdfrwt>
<totfact> 0.76592728E+02</totfact>
</mgrwt>
</event>
<event>
 8    1  0.6836165E-004  0.1030888E+03  0.7546771E-02  0.1276029E+00
         -1   -1    0    0    0  501 -0.00000000000E+00  0.00000000000E+00  0.23784483892E+02  0.23784483892E+02  0.00000000000E+00 0.  1.
          1   -1    0    0  501    0  0.00000000000E+00 -0.00000000000E+00 -0.46201467716E+03  0.46201467716E+03  0.00000000000E+00 0. -1.
         23    2    1    2    0    0  0.33328127284E+02  0.31057456943E+02 -0.15045948018E+03  0.18012076638E+03  0.87921019138E+02 0.  0.
         23    2    1    2    0    0 -0.33328127284E+02 -0.31057456943E+02 -0.28777071309E+03  0.30567839467E+03  0.92476850920E+02 0.  0.
          5    1    3    3  502    0  0.54594980607E+02 -0.62866216790E+01 -0.94337780241E+02  0.10927872757E+03  0.47000000000E+01 0. -1.
         -5    1    3    3    0  502 -0.21266853323E+02  0.37344078622E+02 -0.56121699937E+02  0.70842038807E+02  0.47000000000E+01 0.  1.
          5    1    4    4  503    0 -0.35375620956E+02 -0.60379171452E+02 -0.23318047583E+03  0.24350010926E+03  0.47000000000E+01 0. -1.
         -5    1    4    4    0  503  0.20474936715E+01  0.29321714509E+02 -0.54590237263E+02  0.62178285410E+02  0.47000000000E+01 0.  1.
<mgrwt>
<rscale>  0 0.10205680E+03</rscale>
<asrwt>0</asrwt>
<pdfrwt beam="1">  1        1 0.71079175E-01 0.10308879E+03</pdfrwt>
<pdfrwt beam="2">  1       -1 0.36591517E-02 0.10308879E+03</pdfrwt>
<totfact> 0.13037724E+04</totfact>
</mgrwt>
</event>
<event>
 8    1  0.6836165E-004  0.1443256E+03  0.7546771E-02  0.1210906E+00
          2   -1    0    0  501    0  0.00000000000E+00  0.00000000000E+00  0.46464795069E+03  0.46464795069E+03  0.00000000000E+00 0. -1.
         -2   -1    0    0    0  501 -0.00000000000E+00 -0.00000000000E+00 -0.45151568491E+02  0.45151568491E+02  0.00000000000E+00 0.  1.
         23    2    1    2    0    0 -0.25048764653E+01 -0.10028702761E+03  0.27188742345E+03  0.30335758888E+03  0.89662106767E+02 0.  0.
         23    2    1    2    0    0  0.25048764653E+01  0.10028702761E+03  0.14760895875E+03  0.20644193030E+03  0.10375983601E+03 0.  0.
          5    1    3    3  502    0  0.39375907634E+02 -0.71022786684E+02  0.19059832803E+03  0.20723057443E+03  0.47000000000E+01 0. -1.
         -5    1    3    3    0  502 -0.41880784099E+02 -0.29264240926E+02  0.81289095417E+02  0.96127014452E+02  0.47000000000E+01 0.  1.
          5    1    4    4  503    0  0.32900751495E+02  0.11484660176E+01  0.67768229820E+02  0.75487756597E+02  0.47000000000E+01 0. -1.
         -5    1    4    4    0  503 -0.30395875030E+02  0.99138561592E+02  0.79840728930E+02  0.13095417370E+03  0.47000000000E+01 0.  1.
<mgrwt>
<rscale>  0 0.14181639E+03</rscale>
<asrwt>0</asrwt>
<pdfrwt beam="1">  1        2 0.71484297E-01 0.14432556E+03</pdfrwt>
<pdfrwt beam="2">  1       -2 0.69463955E-02 0.14432556E+03</pdfrwt>
<totfact> 0.76506009E+03</totfact>
</mgrwt>
</event>
<event>
 8    1  0.6836165E-004  0.1487741E+03  0.7546771E-02  0.1202106E+00
          3   -1    0    0  501    0  0.00000000000E+00  0.00000000000E+00  0.43408894391E+02  0.43408894391E+02  0.00000000000E+00 0. -1.
         -3   -1    0    0    0  501 -0.00000000000E+00 -0.00000000000E+00 -0.53092492221E+03  0.53092492221E+03  0.00000000000E+00 0.  1.
         23    2    1    2    0    0 -0.10149574794E+03  0.56075290005E+02 -0.30237029467E+03  0.33682031682E+03  0.92597547079E+02 0.  0.
         23    2    1    2    0    0  0.10149574794E+03 -0.56075290005E+02 -0.18514573315E+03  0.23751349978E+03  0.93208878737E+02 0.  0.
          5    1    3    3  502    0 -0.11111269170E+03  0.24130371878E+02 -0.21670458359E+03  0.24476779129E+03  0.47000000000E+01 0. -1.
         -5    1    4    4    0  503  0.10759724946E+03 -0.17192994476E+02 -0.13246657087E+03  0.17158743995E+03  0.47000000000E+01 0.  1.
          5    1    4    4  503    0 -0.61015015193E+01 -0.38882295529E+02 -0.52679162280E+02  0.65926059832E+02  0.47000000000E+01 0. -1.
         -5    1    3    3    0  502  0.96169437635E+01  0.31944918128E+02 -0.85665711073E+02  0.92052525523E+02  0.47000000000E+01 0.  1.
<mgrwt>
<rscale>  0 0.14867840E+03</rscale>
<asrwt>0</asrwt>
<pdfrwt beam="1">  1        3 0.66782916E-02 0.14877406E+03</pdfrwt>
<pdfrwt beam="2">  1       -3 0.81680755E-01 0.14877406E+03</pdfrwt>
<totfact> 0.47941374E+02</totfact>
</mgrwt>
</event>
<event>
 8    1  0.6836165E-004  0.9388163E+02  0.7546771E-02  0.1293720E+00
         -3   -1    0    0    0  501 -0.00000000000E+00  0.00000000000E+00  0.19147162859E+03  0.19147162859E+03  0.00000000000E+00 0.  1.
          3   -1    0    0  501    0  0.00000000000E+00 -0.00000000000E+00 -0.55677514249E+02  0.55677514249E+02  0.00000000000E+00 0. -1.
         23    2    1    2    0    0 -0.16818665336E+02 -0.15826917890E+02  0.16449165407E+02  0.95303903772E+02  0.90988461895E+02 0.  0.
         23    2    1    2    0    0  0.16818665336E+02  0.15826917890E+02  0.11934494893E+03  0.15184523907E+03  0.90996708502E+02 0.  0.
          5    1    4    4  502    0  0.34279668418E+02 -0.21777257152E+02  0.23131242338E+02  0.46973279298E+02  0.47000000000E+01 0. -1.
         -5    1    3    3    0  503 -0.81748949048E+01 -0.37648042748E+02  0.44090363681E+02  0.58738864468E+02  0.47000000000E+01 0.  1.
          5    1    3    3  503    0 -0.86437704310E+01  0.21821124858E+02 -0.27641198273E+02  0.36565039304E+02  0.47000000000E+01 0. -1.
         -5    1    4    4    0  502 -0.17461003082E+02  0.37604175042E+02  0.96213706596E+02  0.10487195977E+03  0.47000000000E+01 0. -1.
<mgrwt>
<rscale>  0 0.93879628E+02</rscale>
<asrwt>0</asrwt>
<pdfrwt beam="1">  1        3 0.85657715E-02 0.93881626E+02</pdfrwt>
<pdfrwt beam="2">  1       -3 0.29457173E-01 0.93881626E+02</pdfrwt>
<totfact> 0.22604137E+03</totfact>
</mgrwt>
</event>
<event>
 8    1  0.6836165E-004  0.9698966E+02  0.7546771E-02  0.1288322E+00
         -2   -1    0    0    0  501 -0.00000000000E+00  0.00000000000E+00  0.15112420159E+02  0.15112420159E+02  0.00000000000E+00 0.  1.
          2   -1    0    0  501    0  0.00000000000E+00 -0.00000000000E+00 -0.63477130408E+03  0.63477130408E+03  0.00000000000E+00 0. -1.
         23    2    1    2    0    0  0.53499691467E+01  0.17995528892E+02 -0.37638403334E+03  0.38798747160E+03  0.92286923968E+02 0.  0.
         23    2    1    2    0    0 -0.53499691467E+01 -0.17995528892E+02 -0.24327485058E+03  0.26189625264E+03  0.95155309844E+02 0.  0.
          5    1    4    4  502    0  0.28621084638E+02 -0.26790203644E+02 -0.42447735643E+02  0.57972249899E+02  0.47000000000E+01 0. -1.
         -5    1    3    3    0  503 -0.32139307797E+02  0.28390492715E+02 -0.10097191253E+03  0.10980151320E+03  0.47000000000E+01 0.  1.
          5    1    3    3  503    0  0.37489276944E+02 -0.10394963823E+02 -0.27541212081E+03  0.27818595840E+03  0.47000000000E+01 0. -1.
         -5    1    4    4    0  502 -0.33971053785E+02  0.87946747526E+01 -0.20082711494E+03  0.20392400274E+03  0.47000000000E+01 0.  1.
<mgrwt>
<rscale>  0 0.96278758E+02</rscale>
<asrwt>0</asrwt>
<pdfrwt beam="1">  1        2 0.97657121E-01 0.96989660E+02</pdfrwt>
<pdfrwt beam="2">  1       -2 0.23249878E-02 0.96989660E+02</pdfrwt>
<totfact> 0.26579159E+04</totfact>
</mgrwt>
</event>
<event>
 8    1  0.6836165E-004  0.1408101E+03  0.7546771E-02  0.1216481E+00
         -1   -1    0    0    0  501 -0.00000000000E+00  0.00000000000E+00  0.55695124279E+02  0.55695124279E+02  0.00000000000E+00 0.  1.
          1   -1    0    0  501    0  0.00000000000E+00 -0.00000000000E+00 -0.34437421941E+03  0.34437421941E+03  0.00000000000E+00 0. -1.
         23    2    1    2    0    0  0.89401817153E+02 -0.60241610848E+02 -0.10440341915E+03  0.17529280541E+03  0.90585634124E+02 0.  0.
         23    2    1    2    0    0 -0.89401817153E+02  0.60241610848E+02 -0.18427567598E+03  0.22477653828E+03  0.70322335118E+02 0.  0.
          5    1    3    3  502    0  0.38126676055E+02 -0.72777350219E+02 -0.38865276361E+02  0.91009811770E+02  0.47000000000E+01 0. -1.
         -5    1    3    3    0  502  0.51275141098E+02  0.12535739371E+02 -0.65538142791E+02  0.84282993639E+02  0.47000000000E+01 0.  1.
          5    1    4    4  503    0 -0.91587992633E+02  0.31766934932E+02 -0.12038119148E+03  0.15463253154E+03  0.47000000000E+01 0. -1.
         -5    1    4    4    0  503  0.21861754801E+01  0.28474675915E+02 -0.63894484502E+02  0.70144006739E+02  0.47000000000E+01 0.  1.
<mgrwt>
<rscale>  0 0.13768316E+03</rscale>
<asrwt>0</asrwt>
<pdfrwt beam="1">  1        1 0.52980650E-01 0.14081013E+03</pdfrwt>
<pdfrwt beam="2">  1       -1 0.85684805E-02 0.14081013E+03</pdfrwt>
<totfact> 0.54663233E+03</totfact>
</mgrwt>
</event>
<event>
 8    1  0.6836165E-004  0.9516568E+02  0.7546771E-02  0.1291305E+00
         -2   -1    0    0    0  501 -0.00000000000E+00  0.00000000000E+00  0.34707253002E+02  0.34707253002E+02  0.00000000000E+00 0.  1.
          2   -1    0    0  501    0  0.00000000000E+00 -0.00000000000E+00 -0.27271865862E+03  0.27271865862E+03  0.00000000000E+00 0. -1.
         23    2    1    2    0    0 -0.16663637854E+01 -0.26292919742E+02 -0.84447143843E+02  0.12723139392E+03  0.91446230639E+02 0.  0.
         23    2    1    2    0    0  0.16663637854E+01  0.26292919742E+02 -0.15356426178E+03  0.18019451770E+03  0.90520645819E+02 0.  0.
          5    1    4    4  502    0 -0.42354315016E+02  0.25395154726E+02 -0.72937069045E+02  0.88208321177E+02  0.47000000000E+01 0. -1.
         -5    1    4    4    0  502  0.44020678801E+02  0.89776501621E+00 -0.80627192730E+02  0.91986196528E+02  0.47000000000E+01 0.  1.
          5    1    3    3  503    0 -0.38548779783E+02 -0.92903665224E+01 -0.75456996698E+02  0.85370765977E+02  0.47000000000E+01 0. -1.
         -5    1    3    3    0  503  0.36882415998E+02 -0.17002553220E+02 -0.89901471455E+01  0.41860627940E+02  0.47000000000E+01 0.  1.
<mgrwt>
<rscale>  0 0.94942636E+02</rscale>
<asrwt>0</asrwt>
<pdfrwt beam="1">  1        2 0.41956717E-01 0.95165684E+02</pdfrwt>
<pdfrwt beam="2">  1       -2 0.53395773E-02 0.95165684E+02</pdfrwt>
<totfact> 0.19365368E+04</totfact>
</mgrwt>
</event>
<event>
 8    1  0.6836165E-004  0.9397838E+02  0.7546771E-02  0.1294632E+00
         -4   -1    0    0    0  501 -0.00000000000E+00  0.00000000000E+00  0.12090672637E+03  0.12090672637E+03  0.00000000000E+00 0.  1.
          4   -1    0    0  501    0  0.00000000000E+00 -0.00000000000E+00 -0.75001882826E+02  0.75001882826E+02  0.00000000000E+00 0. -1.
         23    2    1    2    0    0 -0.59516651296E+01 -0.16594753507E+02  0.44273633524E+02  0.10388498487E+03  0.92309952303E+02 0.  0.
         23    2    1    2    0    0  0.59516651296E+01  0.16594753507E+02  0.16312100237E+01  0.92023624330E+02  0.90304365492E+02 0.  0.
          5    1    3    3  502    0  0.21728186579E+02 -0.18401331221E+02 -0.19059320538E+02  0.34584256274E+02  0.47000000000E+01 0. -1.
         -5    1    4    4    0  503 -0.41352579189E+02  0.13754975617E+01  0.52874918190E+01  0.41975890328E+02  0.47000000000E+01 0.  1.
          5    1    4    4  503    0  0.47304244319E+02  0.15219255946E+02 -0.36562817953E+01  0.50047734001E+02  0.47000000000E+01 0. -1.
         -5    1    3    3    0  502 -0.27679851708E+02  0.18065777131E+01  0.63332954062E+02  0.69300728595E+02  0.47000000000E+01 0.  1.
<mgrwt>
<rscale>  0 0.93482158E+02</rscale>
<asrwt>0</asrwt>
<pdfrwt beam="1">  1        4 0.11538751E-01 0.93978378E+02</pdfrwt>
<pdfrwt beam="2">  1       -4 0.18601035E-01 0.93978378E+02</pdfrwt>
<totfact> 0.22916274E+03</totfact>
</mgrwt>
</event>
<event>
 8    1  0.6836165E-004  0.1191715E+03  0.7546771E-02  0.1247064E+00
          1   -1    0    0  501    0  0.00000000000E+00  0.00000000000E+00  0.14644577126E+04  0.14644577126E+04  0.00000000000E+00 0. -1.
         -1   -1    0    0    0  501 -0.00000000000E+00 -0.00000000000E+00 -0.97758424135E+01  0.97758424135E+01  0.00000000000E+00 0.  1.
         23    2    1    2    0    0  0.64599435276E+02  0.37892778069E+01  0.88660554339E+03  0.89379186658E+03  0.92774271941E+02 0.  0.
         23    2    1    2    0    0 -0.64599435276E+02 -0.37892778069E+01  0.56807632676E+03  0.58044168840E+03  0.10007194880E+03 0.  0.
          5    1    4    4  502    0 -0.15553469584E+02  0.38966585284E+02  0.35770577477E+03  0.36018858462E+03  0.47000000000E+01 0. -1.
         -5    1    4    4    0  502 -0.49045965692E+02 -0.42755863090E+02  0.21037055199E+03  0.22025310378E+03  0.47000000000E+01 0.  1.
          5    1    3    3  503    0  0.26360846859E+02  0.45671025046E+02  0.32168767875E+03  0.32601501413E+03  0.47000000000E+01 0. -1.
         -5    1    3    3    0  503  0.38238588417E+02 -0.41881747239E+02  0.56491786463E+03  0.56777685245E+03  0.47000000000E+01 0.  1.
<mgrwt>
<rscale>  0 0.11762705E+03</rscale>
<asrwt>0</asrwt>
<pdfrwt beam="1">  1        1 0.22530101E+00 0.11917148E+03</pdfrwt>
<pdfrwt beam="2">  1       -1 0.15039769E-02 0.11917148E+03</pdfrwt>
<totfact> 0.76291908E+03</totfact>
</mgrwt>
</event>
<event>
 8    1  0.6836165E-004  0.1660933E+03  0.7546771E-02  0.1182218E+00
          2   -1    0    0  501    0  0.00000000000E+00  0.00000000000E+00  0.24664252931E+03  0.24664252931E+03  0.00000000000E+00 0. -1.
         -2   -1    0    0    0  501 -0.00000000000E+00 -0.00000000000E+00 -0.24224728555E+03  0.24224728555E+03  0.00000000000E+00 0.  1.
         23    2    1    2    0    0  0.13227534081E+03  0.41701998640E+02 -0.17754976004E+03  0.24253442533E+03  0.89795365694E+02 0.  0.
         23    2    1    2    0    0 -0.13227534081E+03 -0.41701998640E+02  0.18194500380E+03  0.24635538954E+03  0.91384741994E+02 0.  0.
          5    1    3    3  502    0  0.41208915945E+02  0.26892959047E+02 -0.88811049746E+01  0.50223202061E+02  0.47000000000E+01 0. -1.
         -5    1    4    4    0  503 -0.47671744558E+02 -0.13465148404E+02  0.74275140158E+01  0.50310669000E+02  0.47000000000E+01 0.  1.
          5    1    4    4  503    0 -0.84603596251E+02 -0.28236850237E+02  0.17451748978E+03  0.19604472054E+03  0.47000000000E+01 0. -1.
         -5    1    3    3    0  502  0.91066424864E+02  0.14809039593E+02 -0.16866865507E+03  0.19231122327E+03  0.47000000000E+01 0.  1.
<mgrwt>
<rscale>  0 0.16587561E+03</rscale>
<asrwt>0</asrwt>
<pdfrwt beam="1">  1        2 0.37945005E-01 0.16609333E+03</pdfrwt>
<pdfrwt beam="2">  1       -2 0.37268813E-01 0.16609333E+03</pdfrwt>
<totfact> 0.91780505E+02</totfact>
</mgrwt>
</event>
<event>
 8    1  0.6836165E-004  0.9229088E+02  0.7546771E-02  0.1297890E+00
         -1   -1    0    0    0  501 -0.00000000000E+00  0.00000000000E+00  0.78345076787E+02  0.78345076787E+02  0.00000000000E+00 0.  1.
          1   -1    0    0  501    0  0.00000000000E+00 -0.00000000000E+00 -0.14055112835E+03  0.14055112835E+03  0.00000000000E+00 0. -1.
         23    2    1    2    0    0  0.93384645131E+01  0.51519235534E+01  0.21674233666E+02  0.94801790696E+02  0.91672557935E+02 0.  0.
         23    2    1    2    0    0 -0.93384645131E+01 -0.51519235534E+01 -0.83880285230E+02  0.12409441444E+03  0.90828256671E+02 0.  0.
          5    1    3    3  502    0 -0.35278483336E+02 -0.17159359521E+02  0.20883010847E+02  0.44690101227E+02  0.47000000000E+01 0. -1.
         -5    1    3    3    0  502  0.44616947849E+02  0.22311283075E+02  0.79122281882E+00  0.50111689468E+02  0.47000000000E+01 0.  1.
          5    1    4    4  503    0 -0.15189066385E+02 -0.38358492141E+02 -0.79603960229E+02  0.89782861066E+02  0.47000000000E+01 0. -1.
         -5    1    4    4    0  503  0.58506018723E+01  0.33206568588E+02 -0.42763250009E+01  0.34311553377E+02  0.47000000000E+01 0.  1.
<mgrwt>
<rscale>  0 0.92080517E+02</rscale>
<asrwt>0</asrwt>
<pdfrwt beam="1">  1        1 0.21623251E-01 0.92290883E+02</pdfrwt>
<pdfrwt beam="2">  1       -1 0.12053089E-01 0.92290883E+02</pdfrwt>
<totfact> 0.95603205E+03</totfact>
</mgrwt>
</event>
<event>
 8    1  0.6836165E-004  0.9547416E+02  0.7546771E-02  0.1290151E+00
         -3   -1    0    0    0  501 -0.00000000000E+00  0.00000000000E+00  0.34214091117E+03  0.34214091117E+03  0.00000000000E+00 0.  1.
          3   -1    0    0  501    0  0.00000000000E+00 -0.00000000000E+00 -0.30549500658E+02  0.30549500658E+02  0.00000000000E+00 0. -1.
         23    2    1    2    0    0  0.19984538919E+02  0.20715110789E+02  0.22265782291E+03  0.24226394988E+03  0.91031959759E+02 0.  0.
         23    2    1    2    0    0 -0.19984538919E+02 -0.20715110789E+02  0.88933587597E+02  0.13042646194E+03  0.90958129715E+02 0.  0.
          5    1    3    3  502    0 -0.20125066628E+02 -0.22080781079E+02  0.38646909244E+02  0.49073952296E+02  0.47000000000E+01 0. -1.
         -5    1    3    3    0  502  0.40109605548E+02  0.42795891868E+02  0.18401091367E+03  0.19318999759E+03  0.47000000000E+01 0.  1.
          5    1    4    4  503    0 -0.46544739350E+02 -0.36189105997E+02  0.36607079134E+02  0.69557403609E+02  0.47000000000E+01 0. -1.
         -5    1    4    4    0  503  0.26560200431E+02  0.15473995208E+02  0.52326508462E+02  0.60869058334E+02  0.47000000000E+01 0.  1.
<mgrwt>
<rscale>  0 0.95456557E+02</rscale>
<asrwt>0</asrwt>
<pdfrwt beam="1">  1        3 0.46999234E-02 0.95474160E+02</pdfrwt>
<pdfrwt beam="2">  1       -3 0.52637061E-01 0.95474160E+02</pdfrwt>
<totfact> 0.19457563E+03</totfact>
</mgrwt>
</event>
<event>
 8    1  0.6836165E-004  0.9971191E+02  0.7546771E-02  0.1285035E+00
         -1   -1    0    0    0  501 -0.00000000000E+00  0.00000000000E+00  0.18417789311E+03  0.18417789311E+03  0.00000000000E+00 0.  1.
          1   -1    0    0  501    0  0.00000000000E+00 -0.00000000000E+00 -0.88988876962E+02  0.88988876962E+02  0.00000000000E+00 0. -1.
         23    2    1    2    0    0  0.94988818053E-01 -0.14740864098E+02 -0.43824031094E+02  0.10209049145E+03  0.91019891482E+02 0.  0.
         23    2    1    2    0    0 -0.94988818053E-01  0.14740864098E+02  0.13901304725E+03  0.17107627863E+03  0.98616244642E+02 0.  0.
          5    1    4    4  502    0  0.36912811528E+02  0.31464527461E+02  0.11181816951E+03  0.12197526461E+03  0.47000000000E+01 0. -1.
         -5    1    3    3    0  503 -0.32196235452E+02  0.19573556528E+02 -0.39098661018E+02  0.54502449356E+02  0.47000000000E+01 0.  1.
          5    1    3    3  503    0  0.32291224270E+02 -0.34314420626E+02 -0.47253700767E+01  0.47588042092E+02  0.47000000000E+01 0. -1.
         -5    1    4    4    0  502 -0.37007800346E+02 -0.16723663364E+02  0.27194877734E+02  0.49101014019E+02  0.47000000000E+01 0.  1.
<mgrwt>
<rscale>  0 0.97779978E+02</rscale>
<asrwt>0</asrwt>
<pdfrwt beam="1">  1        1 0.13690597E-01 0.99711914E+02</pdfrwt>
<pdfrwt beam="2">  1       -1 0.28335060E-01 0.99711914E+02</pdfrwt>
<totfact> 0.44411949E+03</totfact>
</mgrwt>
</event>
<event>
 8    1  0.6836165E-004  0.9185853E+02  0.7546771E-02  0.1298575E+00
         -3   -1    0    0    0  501 -0.00000000000E+00  0.00000000000E+00  0.71632356792E+02  0.71632356792E+02  0.00000000000E+00 0.  1.
          3   -1    0    0  501    0  0.00000000000E+00 -0.00000000000E+00 -0.12217983794E+03  0.12217983794E+03  0.00000000000E+00 0. -1.
         23    2    1    2    0    0  0.44372873860E+01 -0.41215254010E+01 -0.44393070393E+02  0.10202320028E+03  0.91658672290E+02 0.  0.
         23    2    1    2    0    0 -0.44372873860E+01  0.41215254010E+01 -0.61544107500E+01  0.91788994445E+02  0.91381979835E+02 0.  0.
          5    1    3    3  502    0 -0.35279483354E+02  0.22956714341E+02 -0.12552172878E+02  0.44173518346E+02  0.47000000000E+01 0.  1.
         -5    1    4    4    0  503 -0.35257910721E+02 -0.16354037994E+02  0.22136388896E+02  0.44974265313E+02  0.47000000000E+01 0.  1.
          5    1    4    4  503    0  0.30820623335E+02  0.20475563395E+02 -0.28290799646E+02  0.46814729132E+02  0.47000000000E+01 0. -1.
         -5    1    3    3    0  502  0.39716770741E+02 -0.27078239742E+02 -0.31840897515E+02  0.57849681937E+02  0.47000000000E+01 0. -1.
<mgrwt>
<rscale>  0 0.91789425E+02</rscale>
<asrwt>0</asrwt>
<pdfrwt beam="1">  1        3 0.18796898E-01 0.91858525E+02</pdfrwt>
<pdfrwt beam="2">  1       -3 0.11020363E-01 0.91858525E+02</pdfrwt>
<totfact> 0.33149418E+03</totfact>
</mgrwt>
</event>
<event>
 8    1  0.6836165E-004  0.9539681E+02  0.7546771E-02  0.1290982E+00
         -1   -1    0    0    0  501 -0.00000000000E+00  0.00000000000E+00  0.55891578391E+02  0.55891578391E+02  0.00000000000E+00 0.  1.
          1   -1    0    0  501    0  0.00000000000E+00 -0.00000000000E+00 -0.22487808681E+03  0.22487808681E+03  0.00000000000E+00 0. -1.
         23    2    1    2    0    0 -0.19387611684E+02 -0.20406446008E+02 -0.91170399583E+01  0.94600928004E+02  0.89854953320E+02 0.  0.
         23    2    1    2    0    0  0.19387611684E+02  0.20406446008E+02 -0.15986946846E+03  0.18616873719E+03  0.91149598122E+02 0.  0.
          5    1    4    4  502    0 -0.15143520914E+02  0.39026540603E+02 -0.12994964992E+03  0.13660672974E+03  0.47000000000E+01 0. -1.
         -5    1    3    3    0  503  0.90294882671E+00 -0.46932389534E+02  0.18835738692E+02  0.50797042788E+02  0.47000000000E+01 0.  1.
          5    1    3    3  503    0 -0.20290560510E+02  0.26525943525E+02 -0.27952778650E+02  0.43803885216E+02  0.47000000000E+01 0. -1.
         -5    1    4    4    0  502  0.34531132598E+02 -0.18620094595E+02 -0.29919818542E+02  0.49562007454E+02  0.47000000000E+01 0.  1.
<mgrwt>
<rscale>  0 0.95086241E+02</rscale>
<asrwt>0</asrwt>
<pdfrwt beam="1">  1        1 0.34596629E-01 0.95396812E+02</pdfrwt>
<pdfrwt beam="2">  1       -1 0.85987042E-02 0.95396812E+02</pdfrwt>
<totfact> 0.89413191E+03</totfact>
</mgrwt>
</event>
<event>
 8    1  0.6836165E-004  0.1189995E+03  0.7546771E-02  0.1244996E+00
          1   -1    0    0  501    0  0.00000000000E+00  0.00000000000E+00  0.31213786463E+03  0.31213786463E+03  0.00000000000E+00 0. -1.
         -1   -1    0    0    0  501 -0.00000000000E+00 -0.00000000000E+00 -0.45234972788E+02  0.45234972788E+02  0.00000000000E+00 0.  1.
         23    2    1    2    0    0  0.42301095218E+02 -0.62989424108E+02  0.12598900122E+03  0.17330349253E+03  0.91672361631E+02 0.  0.
         23    2    1    2    0    0 -0.42301095218E+02  0.62989424108E+02  0.14091389062E+03  0.18406934489E+03  0.90927162902E+02 0.  0.
          5    1    3    3  502    0  0.40074845405E+02 -0.26115931130E+02  0.12726973328E+03  0.13604304504E+03  0.47000000000E+01 0. -1.
         -5    1    3    3    0  502  0.22262498132E+01 -0.36873492978E+02 -0.12807320592E+01  0.37260447492E+02  0.47000000000E+01 0.  1.
          5    1    4    4  503    0 -0.29881485999E+02 -0.43549005247E+00  0.14505194452E+01  0.30286744027E+02  0.47000000000E+01 0. -1.
         -5    1    4    4    0  503 -0.12419609219E+02  0.63424914161E+02  0.13946337117E+03  0.15378260087E+03  0.47000000000E+01 0.  1.
<mgrwt>
<rscale>  0 0.11885592E+03</rscale>
<asrwt>0</asrwt>
<pdfrwt beam="1">  1        1 0.48021209E-01 0.11899946E+03</pdfrwt>
<pdfrwt beam="2">  1       -1 0.69592268E-02 0.11899946E+03</pdfrwt>
<totfact> 0.83510357E+03</totfact>
</mgrwt>
</event>
<event>
 8    1  0.6836165E-004  0.1408122E+03  0.7546771E-02  0.1213307E+00
         -1   -1    0    0    0  501 -0.00000000000E+00  0.00000000000E+00  0.30013850489E+02  0.30013850489E+02  0.00000000000E+00 0.  1.
          1   -1    0    0  501    0  0.00000000000E+00 -0.00000000000E+00 -0.79277417934E+03  0.79277417934E+03  0.00000000000E+00 0. -1.
         23    2    1    2    0    0 -0.99811010732E+02  0.36574761533E+01 -0.20784166127E+03  0.25105026567E+03  0.99259582601E+02 0.  0.
         23    2    1    2    0    0  0.99811010732E+02 -0.36574761533E+01 -0.55491866758E+03  0.57173776416E+03  0.94729764802E+02 0.  0.
          5    1    4    4  502    0  0.71533590132E+02  0.33731368929E+02 -0.44724277926E+03  0.45420595920E+03  0.47000000000E+01 0. -1.
         -5    1    4    4    0  502  0.28277420600E+02 -0.37388845083E+02 -0.10767588832E+03  0.11753180496E+03  0.47000000000E+01 0.  1.
          5    1    3    3  503    0 -0.68325401885E+02 -0.39868707731E+02 -0.81472480676E+02  0.11365618992E+03  0.47000000000E+01 0. -1.
         -5    1    3    3    0  503 -0.31485608847E+02  0.43526183884E+02 -0.12636918059E+03  0.13739407575E+03  0.47000000000E+01 0.  1.
<mgrwt>
<rscale>  0 0.14001660E+03</rscale>
<asrwt>0</asrwt>
<pdfrwt beam="1">  1        1 0.12196525E+00 0.14081221E+03</pdfrwt>
<pdfrwt beam="2">  1       -1 0.46175158E-02 0.14081221E+03</pdfrwt>
<totfact> 0.45188238E+03</totfact>
</mgrwt>
</event>
<event>
 8    1  0.6836165E-004  0.9480454E+02  0.7546771E-02  0.1292390E+00
         -1   -1    0    0    0  501 -0.00000000000E+00  0.00000000000E+00  0.81255801017E+02  0.81255801017E+02  0.00000000000E+00 0.  1.
          1   -1    0    0  501    0  0.00000000000E+00 -0.00000000000E+00 -0.17247216433E+03  0.17247216433E+03  0.00000000000E+00 0. -1.
         23    2    1    2    0    0 -0.14843991956E+02 -0.18065948446E+02  0.31539017985E+02  0.98625471648E+02  0.90474037226E+02 0.  0.
         23    2    1    2    0    0  0.14843991956E+02  0.18065948446E+02 -0.12275538130E+03  0.15510249370E+03  0.91875879987E+02 0.  0.
          5    1    3    3  502    0  0.31354474599E+02  0.98360559494E+01 -0.45859533770E+01  0.33510775019E+02  0.47000000000E+01 0. -1.
         -5    1    3    3    0  502 -0.46198466554E+02 -0.27902004396E+02  0.36124971362E+02  0.65114696629E+02  0.47000000000E+01 0.  1.
          5    1    4    4  503    0 -0.18780697560E+02  0.25792067274E+02 -0.11499110629E+03  0.11942776001E+03  0.47000000000E+01 0. -1.
         -5    1    4    4    0  503  0.33624689515E+02 -0.77261188278E+01 -0.77642750033E+01  0.35674733685E+02  0.47000000000E+01 0. -1.
<mgrwt>
<rscale>  0 0.94463222E+02</rscale>
<asrwt>0</asrwt>
<pdfrwt beam="1">  1        1 0.26534179E-01 0.94804535E+02</pdfrwt>
<pdfrwt beam="2">  1       -1 0.12500893E-01 0.94804535E+02</pdfrwt>
<totfact> 0.70253627E+03</totfact>
</mgrwt>
</event>
<event>
 8    1  0.6836165E-004  0.1694201E+03  0.7546771E-02  0.1178710E+00
          2   -1    0    0  501    0  0.00000000000E+00  0.00000000000E+00  0.86246398892E+03  0.86246398892E+03  0.00000000000E+00 0. -1.
         -2   -1    0    0    0  501 -0.00000000000E+00 -0.00000000000E+00 -0.14709668525E+03  0.14709668525E+03  0.00000000000E+00 0.  1.
         23    2    1    2    0    0 -0.12350914635E+03  0.69656965982E+02  0.80230947714E+03  0.82000224197E+03  0.92717730694E+02 0.  0.
         23    2    1    2    0    0  0.12350914635E+03 -0.69656965982E+02 -0.86942173476E+02  0.18955843219E+03  0.90922249997E+02 0.  0.
          5    1    4    4  502    0  0.64816532336E+02  0.43825385045E+01 -0.65883129265E+02  0.92644839195E+02  0.47000000000E+01 0. -1.
         -5    1    4    4    0  502  0.58692614015E+02 -0.74039504487E+02 -0.21059044211E+02  0.96913592997E+02  0.47000000000E+01 0.  1.
          5    1    3    3  503    0 -0.51681011519E+02 -0.12023454675E+02  0.16284878504E+03  0.17133974204E+03  0.47000000000E+01 0. -1.
         -5    1    3    3    0  503 -0.71828134832E+02  0.81680420657E+02  0.63946069210E+03  0.64866249993E+03  0.47000000000E+01 0.  1.
<mgrwt>
<rscale>  0 0.16917562E+03</rscale>
<asrwt>0</asrwt>
<pdfrwt beam="1">  1        2 0.13268676E+00 0.16942013E+03</pdfrwt>
<pdfrwt beam="2">  1       -2 0.22630260E-01 0.16942013E+03</pdfrwt>
<totfact> 0.55205594E+02</totfact>
</mgrwt>
</event>
<event>
 8    1  0.6836165E-004  0.1428625E+03  0.7546771E-02  0.1220814E+00
         -1   -1    0    0    0  501 -0.00000000000E+00  0.00000000000E+00  0.17863867698E+02  0.17863867698E+02  0.00000000000E+00 0.  1.
          1   -1    0    0  501    0  0.00000000000E+00 -0.00000000000E+00 -0.10023146721E+04  0.10023146721E+04  0.00000000000E+00 0. -1.
         23    2    1    2    0    0  0.24938067988E+02  0.79081344123E+02 -0.59054426295E+03  0.60116534422E+03  0.76036033296E+02 0.  0.
         23    2    1    2    0    0 -0.24938067988E+02 -0.79081344123E+02 -0.39390654146E+03  0.41901319558E+03  0.11633541357E+03 0.  0.
          5    1    3    3  502    0 -0.21389671661E+02  0.13142247026E+02 -0.72451145836E+02  0.76821190069E+02  0.47000000000E+01 0. -1.
         -5    1    4    4    0  503  0.13746798540E+02 -0.90724955912E+02 -0.18950382479E+03  0.21060337535E+03  0.47000000000E+01 0.  1.
          5    1    4    4  503    0 -0.38684866527E+02  0.11643611789E+02 -0.20440271666E+03  0.20840982024E+03  0.47000000000E+01 0. -1.
         -5    1    3    3    0  502  0.46327739648E+02  0.65939097098E+02 -0.51809311712E+03  0.52434415415E+03  0.47000000000E+01 0.  1.
<mgrwt>
<rscale>  0 0.13458017E+03</rscale>
<asrwt>0</asrwt>
<pdfrwt beam="1">  1        1 0.15420225E+00 0.14286250E+03</pdfrwt>
<pdfrwt beam="2">  1       -1 0.27482875E-02 0.14286250E+03</pdfrwt>
<totfact> 0.66595710E+03</totfact>
</mgrwt>
</event>
<event>
 8    1  0.6836165E-004  0.1153344E+03  0.7546771E-02  0.1251555E+00
         -2   -1    0    0    0  501 -0.00000000000E+00  0.00000000000E+00  0.10022217262E+03  0.10022217262E+03  0.00000000000E+00 0.  1.
          2   -1    0    0  501    0  0.00000000000E+00 -0.00000000000E+00 -0.15631079256E+03  0.15631079256E+03  0.00000000000E+00 0. -1.
         23    2    1    2    0    0  0.71144410002E+02  0.12993688613E+01 -0.79517293716E+02  0.14008930646E+03  0.90767826623E+02 0.  0.
         23    2    1    2    0    0 -0.71144410002E+02 -0.12993688613E+01  0.23428673776E+02  0.11644365872E+03  0.89145989635E+02 0.  0.
          5    1    3    3  502    0  0.32224747605E+02  0.37832626289E+02 -0.69508618394E+02  0.85576164912E+02  0.47000000000E+01 0. -1.
         -5    1    4    4    0  503 -0.90924388285E+02 -0.61231176861E+01  0.10454852499E+02  0.91848412594E+02  0.47000000000E+01 0.  1.
          5    1    4    4  503    0  0.19779978283E+02  0.48237488248E+01  0.12973821277E+02  0.24595246129E+02  0.47000000000E+01 0. -1.
         -5    1    3    3    0  502  0.38919662397E+02 -0.36533257428E+02 -0.10008675322E+02  0.54513141545E+02  0.47000000000E+01 0.  1.
<mgrwt>
<rscale>  0 0.11501503E+03</rscale>
<asrwt>0</asrwt>
<pdfrwt beam="1">  1        2 0.24047814E-01 0.11533436E+03</pdfrwt>
<pdfrwt beam="2">  1       -2 0.15418796E-01 0.11533436E+03</pdfrwt>
<totfact> 0.68880914E+03</totfact>
</mgrwt>
</event>
<event>
 8    1  0.7218467E-004  0.2347987E+03  0.7546771E-02  0.1123495E+00
          2   -1    0    0  501    0  0.00000000000E+00  0.00000000000E+00  0.76139118899E+03  0.76139118899E+03  0.00000000000E+00 0. -1.
         -2   -1    0    0    0  501 -0.00000000000E+00 -0.00000000000E+00 -0.37826165100E+03  0.37826165100E+03  0.00000000000E+00 0.  1.
         23    2    1    2    0    0  0.21528605889E+03  0.15255499323E+02  0.70415485160E+03  0.74192470382E+03  0.89651512518E+02 0.  0.
         23    2    1    2    0    0 -0.21528605889E+03 -0.15255499323E+02 -0.32102531361E+03  0.39772813617E+03  0.92464051993E+02 0.  0.
          5    1    4    4  502    0 -0.10546432120E+03 -0.46312000020E+02 -0.11923212432E+03  0.16584906952E+03  0.47000000000E+01 0. -1.
         -5    1    3    3    0  503  0.28205372530E+02  0.33850896757E+02  0.10556409754E+03  0.11448709508E+03  0.47000000000E+01 0.  1.
          5    1    3    3  503    0  0.18708068637E+03 -0.18595397434E+02  0.59859075406E+03  0.62743760874E+03  0.47000000000E+01 0. -1.
         -5    1    4    4    0  502 -0.10982173769E+03  0.31056500697E+02 -0.20179318929E+03  0.23187906664E+03  0.47000000000E+01 0.  1.
<mgrwt>
<rscale>  0 0.23452488E+03</rscale>
<asrwt>0</asrwt>
<pdfrwt beam="1">  1        2 0.11713711E+00 0.23479868E+03</pdfrwt>
<pdfrwt beam="2">  1       -2 0.58194100E-01 0.23479868E+03</pdfrwt>
<totfact> 0.10846942E+02</totfact>
</mgrwt>
</event>
<event>
 8    1  0.6836165E-004  0.9846463E+02  0.7546771E-02  0.1284646E+00
          1   -1    0    0  501    0  0.00000000000E+00  0.00000000000E+00  0.29173192389E+03  0.29173192389E+03  0.00000000000E+00 0. -1.
         -1   -1    0    0    0  501 -0.00000000000E+00 -0.00000000000E+00 -0.33600699480E+02  0.33600699480E+02  0.00000000000E+00 0.  1.
         23    2    1    2    0    0  0.15043725823E+02  0.26382280464E+02  0.15897651768E+03  0.18699950985E+03  0.93664001098E+02 0.  0.
         23    2    1    2    0    0 -0.15043725823E+02 -0.26382280464E+02  0.99154706728E+02  0.13833311352E+03  0.91553569126E+02 0.  0.
          5    1    3    3  502    0 -0.63496920251E+01 -0.33646160453E+02  0.55030465370E+02  0.64983265698E+02  0.47000000000E+01 0. -1.
         -5    1    3    3    0  502  0.21393417848E+02  0.60028440917E+02  0.10394605231E+03  0.12201624416E+03  0.47000000000E+01 0.  1.
          5    1    4    4  503    0  0.17185557465E+02 -0.19019595033E+02  0.10156400492E+03  0.10485430595E+03  0.47000000000E+01 0. -1.
         -5    1    4    4    0  503 -0.32229283288E+02 -0.73626854312E+01 -0.24092981969E+01  0.33478807563E+02  0.47000000000E+01 0.  1.
<mgrwt>
<rscale>  0 0.97959420E+02</rscale>
<asrwt>0</asrwt>
<pdfrwt beam="1">  1        1 0.44881833E-01 0.98464631E+02</pdfrwt>
<pdfrwt beam="2">  1       -1 0.51693386E-02 0.98464631E+02</pdfrwt>
<totfact> 0.13871911E+04</totfact>
</mgrwt>
</event>
<event>
 8    1  0.6836165E-004  0.1327840E+03  0.7546771E-02  0.1223656E+00
          1   -1    0    0  501    0  0.00000000000E+00  0.00000000000E+00  0.71399130389E+02  0.71399130389E+02  0.00000000000E+00 0. -1.
         -1   -1    0    0    0  501 -0.00000000000E+00 -0.00000000000E+00 -0.25300290312E+03  0.25300290312E+03  0.00000000000E+00 0.  1.
         23    2    1    2    0    0  0.29468017537E+02 -0.89731661079E+02 -0.11891590775E+03  0.17824869170E+03  0.93335244778E+02 0.  0.
         23    2    1    2    0    0 -0.29468017537E+02  0.89731661079E+02 -0.62687864978E+02  0.14615334181E+03  0.92254516687E+02 0.  0.
          5    1    4    4  502    0 -0.60275177574E+02  0.39221061018E+02 -0.27363244936E+02  0.77085834187E+02  0.47000000000E+01 0. -1.
         -5    1    4    4    0  502  0.30807160037E+02  0.50510600062E+02 -0.35324620042E+02  0.69067507623E+02  0.47000000000E+01 0.  1.
          5    1    3    3  503    0  0.46456976372E+01 -0.93325401670E+02 -0.52914252568E+02  0.10748591177E+03  0.47000000000E+01 0. -1.
         -5    1    3    3    0  503  0.24822319900E+02  0.35937405910E+01 -0.66001655181E+02  0.70762779929E+02  0.47000000000E+01 0.  1.
<mgrwt>
<rscale>  0 0.13259429E+03</rscale>
<asrwt>0</asrwt>
<pdfrwt beam="1">  1        1 0.10984482E-01 0.13278405E+03</pdfrwt>
<pdfrwt beam="2">  1       -1 0.38923523E-01 0.13278405E+03</pdfrwt>
<totfact> 0.35166891E+03</totfact>
</mgrwt>
</event>
<event>
 8    1  0.6836165E-004  0.2292479E+03  0.7546771E-02  0.1127360E+00
         -2   -1    0    0    0  501 -0.00000000000E+00  0.00000000000E+00  0.20311890929E+03  0.20311890929E+03  0.00000000000E+00 0.  1.
          2   -1    0    0  501    0  0.00000000000E+00 -0.00000000000E+00 -0.37573487210E+03  0.37573487210E+03  0.00000000000E+00 0. -1.
         23    2    1    2    0    0 -0.16830429690E+03 -0.12409742603E+03 -0.24850497260E+03  0.33737135738E+03  0.91313766071E+02 0.  0.
         23    2    1    2    0    0  0.16830429690E+03  0.12409742603E+03  0.75889009789E+02  0.24148242400E+03  0.93958032066E+02 0.  0.
          5    1    3    3  502    0 -0.96496221482E+02 -0.10746035253E+03 -0.11453350499E+03  0.18438888766E+03  0.47000000000E+01 0. -1.
         -5    1    4    4    0  503  0.70795991975E+02  0.12324867745E+02  0.57082481486E+02  0.91893822084E+02  0.47000000000E+01 0.  1.
          5    1    4    4  503    0  0.97508304928E+02  0.11177255829E+03  0.18806528303E+02  0.14958860191E+03  0.47000000000E+01 0. -1.
         -5    1    3    3    0  502 -0.71808075420E+02 -0.16637073500E+02 -0.13397146761E+03  0.15298246973E+03  0.47000000000E+01 0.  1.
<mgrwt>
<rscale>  0 0.22897972E+03</rscale>
<asrwt>0</asrwt>
<pdfrwt beam="1">  1        2 0.57805364E-01 0.22924794E+03</pdfrwt>
<pdfrwt beam="2">  1       -2 0.31249064E-01 0.22924794E+03</pdfrwt>
<totfact> 0.81254897E+02</totfact>
</mgrwt>
</event>
<event>
 8    1  0.6836165E-004  0.1010182E+03  0.7546771E-02  0.1281974E+00
         -4   -1    0    0    0  501 -0.00000000000E+00  0.00000000000E+00  0.50657895360E+02  0.50657895360E+02  0.00000000000E+00 0.  1.
          4   -1    0    0  501    0  0.00000000000E+00 -0.00000000000E+00 -0.21121685277E+03  0.21121685277E+03  0.00000000000E+00 0. -1.
         23    2    1    2    0    0  0.32152932915E+02  0.25139456052E+02 -0.12659845429E+03  0.16196246324E+03  0.92405992906E+02 0.  0.
         23    2    1    2    0    0 -0.32152932915E+02 -0.25139456052E+02 -0.33960503116E+02  0.99912284885E+02  0.84636549750E+02 0.  0.
          5    1    4    4  502    0  0.93637526842E+01  0.23651606624E+02  0.26030273441E+01  0.25998925201E+02  0.47000000000E+01 0. -1.
         -5    1    4    4    0  502 -0.41516685599E+02 -0.48791062676E+02 -0.36563530460E+02  0.73913359685E+02  0.47000000000E+01 0.  1.
          5    1    3    3  503    0  0.53512026756E+02  0.12409817733E+01 -0.11606259673E+03  0.12789719857E+03  0.47000000000E+01 0. -1.
         -5    1    3    3    0  503 -0.21359093840E+02  0.23898474278E+02 -0.10535857564E+02  0.34065264671E+02  0.47000000000E+01 0.  1.
<mgrwt>
<rscale>  0 0.99206352E+02</rscale>
<asrwt>0</asrwt>
<pdfrwt beam="1">  1        4 0.32494901E-01 0.10101817E+03</pdfrwt>
<pdfrwt beam="2">  1       -4 0.77935223E-02 0.10101817E+03</pdfrwt>
<totfact> 0.16159826E+03</totfact>
</mgrwt>
</event>
<event>
 8    1  0.6836165E-004  0.1081525E+03  0.7546771E-02  0.1266632E+00
          1   -1    0    0  501    0  0.00000000000E+00  0.00000000000E+00  0.68767456129E+02  0.68767456129E+02  0.00000000000E+00 0. -1.
         -1   -1    0    0    0  501 -0.00000000000E+00 -0.00000000000E+00 -0.17656987638E+03  0.17656987638E+03  0.00000000000E+00 0.  1.
         23    2    1    2    0    0 -0.37942995262E+01 -0.61810321465E+02 -0.90632632115E+02  0.14110715796E+03  0.88668164951E+02 0.  0.
         23    2    1    2    0    0  0.37942995262E+01  0.61810321465E+02 -0.17169788132E+02  0.10423017454E+03  0.82062263631E+02 0.  0.
          5    1    3    3  502    0  0.22109356257E+02 -0.31491216750E+02  0.33480258418E+01  0.38907835246E+02  0.47000000000E+01 0. -1.
         -5    1    4    4    0  503 -0.29005747138E+02  0.61602670610E+02 -0.19585911091E+02  0.71006480736E+02  0.47000000000E+01 0.  1.
          5    1    4    4  503    0  0.32800046664E+02  0.20765085516E+00  0.24161229592E+01  0.33223693807E+02  0.47000000000E+01 0. -1.
         -5    1    3    3    0  502 -0.25903655783E+02 -0.30319104714E+02 -0.93980657957E+02  0.10219932272E+03  0.47000000000E+01 0.  1.
<mgrwt>
<rscale>  0 0.10679040E+03</rscale>
<asrwt>0</asrwt>
<pdfrwt beam="1">  1        1 0.10579609E-01 0.10815247E+03</pdfrwt>
<pdfrwt beam="2">  1       -1 0.27164596E-01 0.10815247E+03</pdfrwt>
<totfact> 0.67004864E+03</totfact>
</mgrwt>
</event>
<event>
 8    1  0.6836165E-004  0.1077521E+03  0.7546771E-02  0.1265114E+00
         -1   -1    0    0    0  501 -0.00000000000E+00  0.00000000000E+00  0.27848366273E+02  0.27848366273E+02  0.00000000000E+00 0.  1.
          1   -1    0    0  501    0  0.00000000000E+00 -0.00000000000E+00 -0.42778249403E+03  0.42778249403E+03  0.00000000000E+00 0. -1.
         23    2    1    2    0    0  0.37931857507E+02 -0.41767750550E+02 -0.16012886370E+03  0.19300714799E+03  0.91799430194E+02 0.  0.
         23    2    1    2    0    0 -0.37931857507E+02  0.41767750550E+02 -0.23980526405E+03  0.26262371231E+03  0.91001531865E+02 0.  0.
          5    1    3    3  502    0 -0.20280899121E+02  0.10546282976E+02 -0.14115756340E+02  0.27274228326E+02  0.47000000000E+01 0. -1.
         -5    1    4    4    0  503 -0.25427764098E+02 -0.16492174118E+02 -0.16001876783E+03  0.16293145507E+03  0.47000000000E+01 0.  1.
          5    1    4    4  503    0 -0.12504093409E+02  0.58259924668E+02 -0.79786496225E+02  0.99692257243E+02  0.47000000000E+01 0. -1.
         -5    1    3    3    0  502  0.58212756628E+02 -0.52314033526E+02 -0.14601310736E+03  0.16573291966E+03  0.47000000000E+01 0.  1.
<mgrwt>
<rscale>  0 0.10758192E+03</rscale>
<asrwt>0</asrwt>
<pdfrwt beam="1">  1        1 0.65812691E-01 0.10775206E+03</pdfrwt>
<pdfrwt beam="2">  1       -1 0.42843641E-02 0.10775206E+03</pdfrwt>
<totfact> 0.11463190E+04</totfact>
</mgrwt>
</event>
<event>
 8    1  0.1189415E-003  0.9368956E+02  0.7546771E-02  0.1294288E+00
          1   -1    0    0  501    0  0.00000000000E+00  0.00000000000E+00  0.41192328986E+03  0.41192328986E+03  0.00000000000E+00 0. -1.
         -1   -1    0    0    0  501 -0.00000000000E+00 -0.00000000000E+00 -0.60487385155E+02  0.60487385155E+02  0.00000000000E+00 0.  1.
         23    2    1    2    0    0 -0.17109421088E+02 -0.16554018661E+02  0.36586793950E+03  0.37761606633E+03  0.90375752125E+02 0.  0.
         23    2    1    2    0    0  0.17109421088E+02  0.16554018661E+02 -0.14432034800E+02  0.94794608680E+02  0.90614382868E+02 0.  0.
          5    1    3    3  502    0 -0.53997901795E+02 -0.55384778769E+01  0.22548297866E+03  0.23197222204E+03  0.47000000000E+01 0. -1.
         -5    1    3    3    0  502  0.36888480707E+02 -0.11015540784E+02  0.14038496085E+03  0.14564384429E+03  0.47000000000E+01 0.  1.
          5    1    4    4  503    0 -0.17359750113E+02  0.29808742547E+02  0.23218960360E+02  0.41846531235E+02  0.47000000000E+01 0. -1.
         -5    1    4    4    0  503  0.34469171201E+02 -0.13254723886E+02 -0.37650995160E+02  0.52948077445E+02  0.47000000000E+01 0.  1.
<mgrwt>
<rscale>  0 0.93631815E+02</rscale>
<asrwt>0</asrwt>
<pdfrwt beam="1">  1        1 0.63372812E-01 0.93689563E+02</pdfrwt>
<pdfrwt beam="2">  1       -1 0.93057518E-02 0.93689563E+02</pdfrwt>
<totfact> 0.37717592E+03</totfact>
</mgrwt>
</event>
<event>
 8    1  0.6836165E-004  0.1479290E+03  0.7546771E-02  0.1207199E+00
          2   -1    0    0  501    0  0.00000000000E+00  0.00000000000E+00  0.28217826744E+03  0.28217826744E+03  0.00000000000E+00 0. -1.
         -2   -1    0    0    0  501 -0.00000000000E+00 -0.00000000000E+00 -0.76576292291E+02  0.76576292291E+02  0.00000000000E+00 0.  1.
         23    2    1    2    0    0  0.11538354563E+03 -0.82329436801E+01  0.50399242083E+02  0.14434637658E+03  0.70104556662E+02 0.  0.
         23    2    1    2    0    0 -0.11538354563E+03  0.82329436801E+01  0.15520273307E+03  0.21440818316E+03  0.92205404877E+02 0.  0.
          5    1    4    4  502    0 -0.53639707521E+02 -0.11671914640E+02  0.13577173812E+03  0.14652476475E+03  0.47000000000E+01 0. -1.
         -5    1    3    3    0  503  0.94283497981E+02 -0.33267995560E+02  0.26501780975E+02  0.10354019468E+03  0.47000000000E+01 0. -1.
          5    1    3    3  503    0  0.21100047650E+02  0.25035051880E+02  0.23897461108E+02  0.40806181895E+02  0.47000000000E+01 0.  1.
         -5    1    4    4    0  502 -0.61743838109E+02  0.19904858321E+02  0.19430994948E+02  0.67883418402E+02  0.47000000000E+01 0.  1.
<mgrwt>
<rscale>  0 0.14465513E+03</rscale>
<asrwt>0</asrwt>
<pdfrwt beam="1">  1        2 0.43412041E-01 0.14792897E+03</pdfrwt>
<pdfrwt beam="2">  1       -2 0.11780968E-01 0.14792897E+03</pdfrwt>
<totfact> 0.57208637E+03</totfact>
</mgrwt>
</event>
<event>
 8    1  0.6836165E-004  0.9428664E+02  0.7546771E-02  0.1294499E+00
          1   -1    0    0  501    0  0.00000000000E+00  0.00000000000E+00  0.34748173923E+03  0.34748173923E+03  0.00000000000E+00 0. -1.
         -1   -1    0    0    0  501 -0.00000000000E+00 -0.00000000000E+00 -0.79794390404E+02  0.79794390404E+02  0.00000000000E+00 0.  1.
         23    2    1    2    0    0 -0.19375164778E+02 -0.20967493543E+02 -0.44186609607E+02  0.10146124759E+03  0.86757682653E+02 0.  0.
         23    2    1    2    0    0  0.19375164778E+02  0.20967493543E+02  0.31187395844E+03  0.32581488204E+03  0.89860662219E+02 0.  0.
          5    1    3    3  502    0  0.25398893315E+02  0.16949292679E+02 -0.65023630983E+01  0.31571395753E+02  0.47000000000E+01 0. -1.
         -5    1    4    4    0  503  0.36833601212E+02 -0.24401078508E+02  0.17255334052E+03  0.17818213192E+03  0.47000000000E+01 0.  1.
          5    1    4    4  503    0 -0.17458436435E+02  0.45368572050E+02  0.13932061792E+03  0.14763275013E+03  0.47000000000E+01 0. -1.
         -5    1    3    3    0  502 -0.44774058093E+02 -0.37916786222E+02 -0.37684246509E+02  0.69889851841E+02  0.47000000000E+01 0.  1.
<mgrwt>
<rscale>  0 0.93539694E+02</rscale>
<asrwt>0</asrwt>
<pdfrwt beam="1">  1        1 0.53458728E-01 0.94286645E+02</pdfrwt>
<pdfrwt beam="2">  1       -1 0.12276060E-01 0.94286645E+02</pdfrwt>
<totfact> 0.30596095E+03</totfact>
</mgrwt>
</event>
<event>
 8    1  0.6836165E-004  0.1210328E+03  0.7546771E-02  0.1241663E+00
          1   -1    0    0  501    0  0.00000000000E+00  0.00000000000E+00  0.12291034114E+03  0.12291034114E+03  0.00000000000E+00 0. -1.
         -1   -1    0    0    0  501 -0.00000000000E+00 -0.00000000000E+00 -0.28402160167E+03  0.28402160167E+03  0.00000000000E+00 0.  1.
         23    2    1    2    0    0  0.60480264671E+01  0.78404080595E+02 -0.23594258100E+03  0.26517511044E+03  0.92006299711E+02 0.  0.
         23    2    1    2    0    0 -0.60480264671E+01 -0.78404080595E+02  0.74831320474E+02  0.14175683238E+03  0.91167398365E+02 0.  0.
          5    1    4    4  502    0  0.22849668911E+02 -0.36270409298E+02  0.79287569394E+02  0.90256626463E+02  0.47000000000E+01 0. -1.
         -5    1    3    3    0  503  0.26527869988E+02  0.42917960870E+02 -0.21095391381E+03  0.21695465656E+03  0.47000000000E+01 0.  1.
          5    1    3    3  503    0 -0.20479843521E+02  0.35486119725E+02 -0.24988667188E+02  0.48220453872E+02  0.47000000000E+01 0. -1.
         -5    1    4    4    0  502 -0.28897695378E+02 -0.42133671297E+02 -0.44562489207E+01  0.51500205918E+02  0.47000000000E+01 0.  1.
<mgrwt>
<rscale>  0 0.12087336E+03</rscale>
<asrwt>0</asrwt>
<pdfrwt beam="1">  1        1 0.18909283E-01 0.12103280E+03</pdfrwt>
<pdfrwt beam="2">  1       -1 0.43695631E-01 0.12103280E+03</pdfrwt>
<totfact> 0.14140940E+03</totfact>
</mgrwt>
</event>
<event>
 8    1  0.6836165E-004  0.1037420E+03  0.7546771E-02  0.1273172E+00
          2   -1    0    0  501    0  0.00000000000E+00  0.00000000000E+00  0.24207815273E+03  0.24207815273E+03  0.00000000000E+00 0. -1.
         -2   -1    0    0    0  501 -0.00000000000E+00 -0.00000000000E+00 -0.47400061671E+02  0.47400061671E+02  0.00000000000E+00 0.  1.
         23    2    1    2    0    0 -0.91253428040E+01  0.46645698096E+02  0.58990570734E+02  0.11934104216E+03  0.92213360620E+02 0.  0.
         23    2    1    2    0    0  0.91253428040E+01 -0.46645698096E+02  0.13568752033E+03  0.17013717224E+03  0.90975057974E+02 0.  0.
          5    1    3    3  502    0  0.31865874594E+02  0.41811104729E+02  0.57098971990E+02  0.77755932536E+02  0.47000000000E+01 0. -1.
         -5    1    4    4    0  503 -0.37685860474E+02 -0.34214258943E+02  0.89373552230E+02  0.10295902793E+03  0.47000000000E+01 0.  1.
          5    1    4    4  503    0  0.46811203278E+02 -0.12431439152E+02  0.46313968098E+02  0.67178144308E+02  0.47000000000E+01 0. -1.
         -5    1    3    3    0  502 -0.40991217398E+02  0.48345933670E+01  0.18915987441E+01  0.41585109626E+02  0.47000000000E+01 0.  1.
<mgrwt>
<rscale>  0 0.10346609E+03</rscale>
<asrwt>0</asrwt>
<pdfrwt beam="1">  1        2 0.37242792E-01 0.10374197E+03</pdfrwt>
<pdfrwt beam="2">  1       -2 0.72923173E-02 0.10374197E+03</pdfrwt>
<totfact> 0.13838800E+04</totfact>
</mgrwt>
</event>
<event>
 8    1  0.6836165E-004  0.1039043E+03  0.7546771E-02  0.1272472E+00
         -2   -1    0    0    0  501 -0.00000000000E+00  0.00000000000E+00  0.43792332260E+02  0.43792332260E+02  0.00000000000E+00 0.  1.
          2   -1    0    0  501    0  0.00000000000E+00 -0.00000000000E+00 -0.24649804160E+03  0.24649804160E+03  0.00000000000E+00 0. -1.
         23    2    1    2    0    0 -0.43032637599E+02  0.25357016246E+02 -0.10952734487E+03  0.15072563712E+03  0.90703871129E+02 0.  0.
         23    2    1    2    0    0  0.43032637599E+02 -0.25357016246E+02 -0.93178364466E+02  0.13956473674E+03  0.91111590734E+02 0.  0.
          5    1    4    4  502    0  0.31902580782E+02  0.29952142065E+02 -0.58382747834E+02  0.73113204823E+02  0.47000000000E+01 0. -1.
         -5    1    3    3    0  503 -0.71348351462E+02  0.17271831493E+02 -0.81741739309E+02  0.10996683757E+03  0.47000000000E+01 0.  1.
          5    1    3    3  503    0  0.28315713864E+02  0.80851847525E+01 -0.27785605565E+02  0.40758799550E+02  0.47000000000E+01 0. -1.
         -5    1    4    4    0  502  0.11130056817E+02 -0.55309158311E+02 -0.34795616632E+02  0.66451531920E+02  0.47000000000E+01 0.  1.
<mgrwt>
<rscale>  0 0.10381487E+03</rscale>
<asrwt>0</asrwt>
<pdfrwt beam="1">  1        2 0.37922776E-01 0.10390432E+03</pdfrwt>
<pdfrwt beam="2">  1       -2 0.67372819E-02 0.10390432E+03</pdfrwt>
<totfact> 0.15314974E+04</totfact>
</mgrwt>
</event>
<event>
 8    1  0.6836165E-004  0.1015581E+03  0.7546771E-02  0.1281301E+00
          1   -1    0    0  501    0  0.00000000000E+00  0.00000000000E+00  0.19745885998E+02  0.19745885998E+02  0.00000000000E+00 0. -1.
         -1   -1    0    0    0  501 -0.00000000000E+00 -0.00000000000E+00 -0.62688269314E+03  0.62688269314E+03  0.00000000000E+00 0.  1.
         23    2    1    2    0    0  0.79003286179E+01  0.68640410562E+00 -0.15796239585E+03  0.18779287720E+03  0.10124801175E+03 0.  0.
         23    2    1    2    0    0 -0.79003286179E+01 -0.68640410562E+00 -0.44917441129E+03  0.45883570193E+03  0.93325576693E+02 0.  0.
          5    1    3    3  502    0 -0.17725654935E+02 -0.25704890591E+02 -0.70003098808E+01  0.32342457878E+02  0.47000000000E+01 0. -1.
         -5    1    4    4    0  503 -0.79625051536E+01  0.45062038965E+02 -0.26776638903E+03  0.27168900960E+03  0.47000000000E+01 0.  1.
          5    1    4    4  503    0  0.62176535738E-01 -0.45748443071E+02 -0.18140802226E+03  0.18714669233E+03  0.47000000000E+01 0. -1.
         -5    1    3    3    0  502  0.25625983553E+02  0.26391294696E+02 -0.15096208597E+03  0.15545041933E+03  0.47000000000E+01 0.  1.
<mgrwt>
<rscale>  0 0.99523727E+02</rscale>
<asrwt>0</asrwt>
<pdfrwt beam="1">  1        1 0.30378283E-02 0.10155809E+03</pdfrwt>
<pdfrwt beam="2">  1       -1 0.96443501E-01 0.10155809E+03</pdfrwt>
<totfact> 0.34468245E+03</totfact>
</mgrwt>
</event>
<event>
 8    1  0.6836165E-004  0.9780601E+02  0.7546771E-02  0.1285686E+00
          1   -1    0    0  501    0  0.00000000000E+00  0.00000000000E+00  0.25953727185E+03  0.25953727185E+03  0.00000000000E+00 0. -1.
         -1   -1    0    0    0  501 -0.00000000000E+00 -0.00000000000E+00 -0.36371231632E+02  0.36371231632E+02  0.00000000000E+00 0.  1.
         23    2    1    2    0    0 -0.21424556951E+02 -0.23839831784E+02  0.11053648450E+03  0.14673936044E+03  0.91031732253E+02 0.  0.
         23    2    1    2    0    0  0.21424556951E+02  0.23839831784E+02  0.11262955573E+03  0.14916914305E+03  0.92404908930E+02 0.  0.
          5    1    3    3  502    0  0.28811154918E+02 -0.33688289717E+02  0.43748504811E+02  0.62458027386E+02  0.47000000000E+01 0. -1.
         -5    1    4    4    0  503 -0.27299429670E+02 -0.13795400059E+02  0.62099596706E+02  0.69383152379E+02  0.47000000000E+01 0.  1.
          5    1    4    4  503    0  0.48723986622E+02  0.37635231844E+02  0.50529959021E+02  0.79785990668E+02  0.47000000000E+01 0. -1.
         -5    1    3    3    0  502 -0.50235711869E+02  0.98484579328E+01  0.66787979685E+02  0.84281333052E+02  0.47000000000E+01 0.  1.
<mgrwt>
<rscale>  0 0.97480317E+02</rscale>
<asrwt>0</asrwt>
<pdfrwt beam="1">  1        1 0.39928810E-01 0.97806014E+02</pdfrwt>
<pdfrwt beam="2">  1       -1 0.55955743E-02 0.97806014E+02</pdfrwt>
<totfact> 0.14234678E+04</totfact>
</mgrwt>
</event>
<event>
 8    1  0.6836165E-004  0.1210294E+03  0.7546771E-02  0.1241975E+00
          3   -1    0    0  501    0  0.00000000000E+00  0.00000000000E+00  0.22256165679E+03  0.22256165679E+03  0.00000000000E+00 0. -1.
         -3   -1    0    0    0  501 -0.00000000000E+00 -0.00000000000E+00 -0.66137703868E+02  0.66137703868E+02  0.00000000000E+00 0.  1.
         23    2    1    2    0    0 -0.37806308376E+02 -0.67848564243E+02  0.96133245952E+02  0.15348437764E+03  0.91011584857E+02 0.  0.
         23    2    1    2    0    0  0.37806308376E+02  0.67848564243E+02  0.60290706969E+02  0.13521498302E+03  0.92819058730E+02 0.  0.
          5    1    3    3  502    0  0.91212257393E+01 -0.47905617635E+02  0.89257719047E+02  0.10181932709E+03  0.47000000000E+01 0. -1.
         -5    1    3    3    0  502 -0.46927534115E+02 -0.19942946608E+02  0.68755269058E+01  0.51665050545E+02  0.47000000000E+01 0.  1.
          5    1    4    4  503    0  0.49156326569E+02  0.17765109195E+02  0.64875187576E+02  0.83443534857E+02  0.47000000000E+01 0. -1.
         -5    1    4    4    0  503 -0.11350018192E+02  0.50083455049E+02 -0.45844806065E+01  0.51771448164E+02  0.47000000000E+01 0.  1.
<mgrwt>
<rscale>  0 0.12068280E+03</rscale>
<asrwt>0</asrwt>
<pdfrwt beam="1">  1        3 0.34240254E-01 0.12102943E+03</pdfrwt>
<pdfrwt beam="2">  1       -3 0.10175032E-01 0.12102943E+03</pdfrwt>
<totfact> 0.13536258E+03</totfact>
</mgrwt>
</event>
<event>
 8    1  0.6836165E-004  0.1090097E+03  0.7546771E-02  0.1263098E+00
          1   -1    0    0  501    0  0.00000000000E+00  0.00000000000E+00  0.95704313579E+02  0.95704313579E+02  0.00000000000E+00 0. -1.
         -1   -1    0    0    0  501 -0.00000000000E+00 -0.00000000000E+00 -0.20553208269E+03  0.20553208269E+03  0.00000000000E+00 0.  1.
         23    2    1    2    0    0 -0.55593140481E+02 -0.26110162635E+02  0.41023078525E+02  0.11512060753E+03  0.88303586817E+02 0.  0.
         23    2    1    2    0    0  0.55593140481E+02  0.26110162635E+02 -0.15085084764E+03  0.18611578874E+03  0.90059817478E+02 0.  0.
          5    1    3    3  502    0 -0.35928580672E+02 -0.32371806461E+02  0.66270631280E+02  0.82174712247E+02  0.47000000000E+01 0. -1.
         -5    1    4    4    0  503 -0.11597909261E+02  0.37030206948E+02 -0.71286582378E+02  0.81299535995E+02  0.47000000000E+01 0.  1.
          5    1    4    4  503    0  0.67191049743E+02 -0.10920044313E+02 -0.79564265259E+02  0.10481625275E+03  0.47000000000E+01 0. -1.
         -5    1    3    3    0  502 -0.19664559809E+02  0.62616438252E+01 -0.25247552754E+02  0.32945895283E+02  0.47000000000E+01 0.  1.
<mgrwt>
<rscale>  0 0.10864626E+03</rscale>
<asrwt>0</asrwt>
<pdfrwt beam="1">  1        1 0.14723741E-01 0.10900967E+03</pdfrwt>
<pdfrwt beam="2">  1       -1 0.31620320E-01 0.10900967E+03</pdfrwt>
<totfact> 0.33872948E+03</totfact>
</mgrwt>
</event>
<event>
 8    1  0.6836165E-004  0.1240250E+03  0.7546771E-02  0.1236882E+00
          1   -1    0    0  501    0  0.00000000000E+00  0.00000000000E+00  0.56371701969E+03  0.56371701969E+03  0.00000000000E+00 0. -1.
         -1   -1    0    0    0  501 -0.00000000000E+00 -0.00000000000E+00 -0.31594285196E+02  0.31594285196E+02  0.00000000000E+00 0.  1.
         23    2    1    2    0    0  0.71079220297E+02 -0.40833557466E+02  0.15352795734E+03  0.19691927561E+03  0.92123463068E+02 0.  0.
         23    2    1    2    0    0 -0.71079220297E+02  0.40833557466E+02  0.37859477715E+03  0.39839202928E+03  0.93072921573E+02 0.  0.
          5    1    4    4  502    0 -0.49516813688E+02 -0.20507439850E+02  0.22855714141E+03  0.23480401789E+03  0.47000000000E+01 0. -1.
         -5    1    4    4    0  502 -0.21562406609E+02  0.61340997316E+02  0.15003763574E+03  0.16358801139E+03  0.47000000000E+01 0.  1.
          5    1    3    3  503    0 -0.40463710793E+01  0.21016616609E+02  0.11662712432E+02  0.24822976329E+02  0.47000000000E+01 0. -1.
         -5    1    3    3    0  503  0.75125591376E+02 -0.61850174074E+02  0.14186524491E+03  0.17209629928E+03  0.47000000000E+01 0.  1.
<mgrwt>
<rscale>  0 0.12384690E+03</rscale>
<asrwt>0</asrwt>
<pdfrwt beam="1">  1        1 0.86725688E-01 0.12402501E+03</pdfrwt>
<pdfrwt beam="2">  1       -1 0.48606597E-02 0.12402501E+03</pdfrwt>
<totfact> 0.67313035E+03</totfact>
</mgrwt>
</event>
<event>
 8    1  0.6836165E-004  0.1308816E+03  0.7546771E-02  0.1226163E+00
          2   -1    0    0  501    0  0.00000000000E+00  0.00000000000E+00  0.26856893163E+03  0.26856893163E+03  0.00000000000E+00 0. -1.
         -2   -1    0    0    0  501 -0.00000000000E+00 -0.00000000000E+00 -0.64004560806E+02  0.64004560806E+02  0.00000000000E+00 0.  1.
         23    2    1    2    0    0 -0.93321396634E+02  0.79726687387E+01  0.92201801224E+02  0.16007610541E+03  0.91382388122E+02 0.  0.
         23    2    1    2    0    0  0.93321396634E+02 -0.79726687387E+01  0.11236256960E+03  0.17249738703E+03  0.91419664003E+02 0.  0.
          5    1    4    4  502    0 -0.25891953297E+01 -0.28299639265E+02  0.45082454885E+02  0.53498516367E+02  0.47000000000E+01 0. -1.
         -5    1    3    3    0  503 -0.51327931986E+02  0.32415526239E+02  0.62229545592E+01  0.61205703221E+02  0.47000000000E+01 0.  1.
          5    1    3    3  503    0 -0.41993464648E+02 -0.24442857501E+02  0.85978846665E+02  0.98870402193E+02  0.47000000000E+01 0. -1.
         -5    1    4    4    0  502  0.95910591963E+02  0.20326970527E+02  0.67280114717E+02  0.11899887066E+03  0.47000000000E+01 0.  1.
<mgrwt>
<rscale>  0 0.13087512E+03</rscale>
<asrwt>0</asrwt>
<pdfrwt beam="1">  1        2 0.41318297E-01 0.13088163E+03</pdfrwt>
<pdfrwt beam="2">  1       -2 0.98468556E-02 0.13088163E+03</pdfrwt>
<totfact> 0.79441015E+03</totfact>
</mgrwt>
</event>
<event>
 8    1  0.6836165E-004  0.9237784E+02  0.7546771E-02  0.1298292E+00
          1   -1    0    0  501    0  0.00000000000E+00  0.00000000000E+00  0.27152625498E+03  0.27152625498E+03  0.00000000000E+00 0. -1.
         -1   -1    0    0    0  501 -0.00000000000E+00 -0.00000000000E+00 -0.15066050783E+03  0.15066050783E+03  0.00000000000E+00 0.  1.
         23    2    1    2    0    0 -0.91542500122E+01  0.10904301588E+02 -0.12797524388E+03  0.15675220583E+03  0.89391760805E+02 0.  0.
         23    2    1    2    0    0  0.91542500122E+01 -0.10904301588E+02  0.24884099103E+03  0.26543455699E+03  0.91274098966E+02 0.  0.
          5    1    4    4  502    0  0.31886493112E+02  0.11049309663E+01  0.27002438647E+02  0.42061752321E+02  0.47000000000E+01 0. -1.
         -5    1    3    3    0  503 -0.38666522740E+02 -0.11219434862E+02 -0.10617698753E+03  0.11365130171E+03  0.47000000000E+01 0.  1.
          5    1    3    3  503    0  0.29512272728E+02  0.22123736450E+02 -0.21798256350E+02  0.43100904120E+02  0.47000000000E+01 0. -1.
         -5    1    4    4    0  502 -0.22732243100E+02 -0.12009232554E+02  0.22183855238E+03  0.22337280467E+03  0.47000000000E+01 0.  1.
<mgrwt>
<rscale>  0 0.91909443E+02</rscale>
<asrwt>0</asrwt>
<pdfrwt beam="1">  1        1 0.41773270E-01 0.92377839E+02</pdfrwt>
<pdfrwt beam="2">  1       -1 0.23178540E-01 0.92377839E+02</pdfrwt>
<totfact> 0.15263895E+03</totfact>
</mgrwt>
</event>
<event>
 8    1  0.6836165E-004  0.1090727E+03  0.7546771E-02  0.1262711E+00
          1   -1    0    0  501    0  0.00000000000E+00  0.00000000000E+00  0.47368389675E+03  0.47368389675E+03  0.00000000000E+00 0. -1.
         -1   -1    0    0    0  501 -0.00000000000E+00 -0.00000000000E+00 -0.29911382818E+02  0.29911382818E+02  0.00000000000E+00 0.  1.
         23    2    1    2    0    0  0.45853814581E+02 -0.35394869031E+02  0.32406634583E+03  0.34164956844E+03  0.91378673923E+02 0.  0.
         23    2    1    2    0    0 -0.45853814581E+02  0.35394869031E+02  0.11970616810E+03  0.16194571112E+03  0.92420114727E+02 0.  0.
          5    1    3    3  502    0 -0.26118162454E+02 -0.18242656519E+02  0.71296229145E+02  0.78231676559E+02  0.47000000000E+01 0.  1.
         -5    1    4    4    0  503 -0.96436585980E+01  0.27746303084E+02 -0.64071049055E+01  0.30430223122E+02  0.47000000000E+01 0.  1.
          5    1    4    4  503    0 -0.36210155983E+02  0.76485659466E+01  0.12611327300E+03  0.13151548800E+03  0.47000000000E+01 0. -1.
         -5    1    3    3    0  502  0.71971977036E+02 -0.17152212512E+02  0.25277011669E+03  0.26341789188E+03  0.47000000000E+01 0. -1.
<mgrwt>
<rscale>  0 0.10885174E+03</rscale>
<asrwt>0</asrwt>
<pdfrwt beam="1">  1        1 0.72874441E-01 0.10907267E+03</pdfrwt>
<pdfrwt beam="2">  1       -1 0.46017515E-02 0.10907267E+03</pdfrwt>
<totfact> 0.90790396E+03</totfact>
</mgrwt>
</event>
<event>
 8    1  0.6836165E-004  0.9810826E+02  0.7546771E-02  0.1284956E+00
          3   -1    0    0  501    0  0.00000000000E+00  0.00000000000E+00  0.19412083435E+03  0.19412083435E+03  0.00000000000E+00 0. -1.
         -3   -1    0    0    0  501 -0.00000000000E+00 -0.00000000000E+00 -0.32359531199E+03  0.32359531199E+03  0.00000000000E+00 0.  1.
         23    2    1    2    0    0 -0.61573553049E+01 -0.28159131817E+02 -0.30313448684E+03  0.31825931158E+03  0.92561452943E+02 0.  0.
         23    2    1    2    0    0  0.61573553049E+01  0.28159131817E+02  0.17366000919E+03  0.19945683475E+03  0.93778357882E+02 0.  0.
          5    1    3    3  502    0 -0.41554365847E+02 -0.40482532277E+02 -0.16126708000E+03  0.17144900650E+03  0.47000000000E+01 0. -1.
         -5    1    4    4    0  503  0.28800277522E+02  0.55295864812E+01  0.81285116217E+01  0.30792775340E+02  0.47000000000E+01 0.  1.
          5    1    4    4  503    0 -0.22642922217E+02  0.22629545336E+02  0.16553149757E+03  0.16866405941E+03  0.47000000000E+01 0. -1.
         -5    1    3    3    0  502  0.35397010542E+02  0.12323400459E+02 -0.14186740684E+03  0.14681030508E+03  0.47000000000E+01 0.  1.
<mgrwt>
<rscale>  0 0.97816322E+02</rscale>
<asrwt>0</asrwt>
<pdfrwt beam="1">  1        3 0.29864744E-01 0.98108257E+02</pdfrwt>
<pdfrwt beam="2">  1       -3 0.49783894E-01 0.98108257E+02</pdfrwt>
<totfact> 0.98793727E+01</totfact>
</mgrwt>
</event>
<event>
 8    1  0.6836165E-004  0.1078602E+03  0.7546771E-02  0.1264871E+00
          2   -1    0    0  501    0  0.00000000000E+00  0.00000000000E+00  0.10894914406E+04  0.10894914406E+04  0.00000000000E+00 0. -1.
         -2   -1    0    0    0  501 -0.00000000000E+00 -0.00000000000E+00 -0.11905039648E+02  0.11905039648E+02  0.00000000000E+00 0.  1.
         23    2    1    2    0    0 -0.37890230787E+02  0.45658263882E+02  0.35912323118E+03  0.37497108246E+03  0.90074807018E+02 0.  0.
         23    2    1    2    0    0  0.37890230787E+02 -0.45658263882E+02  0.71846316978E+03  0.72642539779E+03  0.89354270077E+02 0.  0.
          5    1    4    4  502    0 -0.81342586699E+01 -0.51682095293E+02  0.51548517773E+03  0.51815467150E+03  0.47000000000E+01 0. -1.
         -5    1    4    4    0  502  0.46024489457E+02  0.60238314104E+01  0.20297799204E+03  0.20827072629E+03  0.47000000000E+01 0.  1.
          5    1    3    3  503    0 -0.34163505512E+02 -0.12785804136E+02  0.23238639214E+03  0.23527887102E+03  0.47000000000E+01 0. -1.
         -5    1    3    3    0  503 -0.37267252751E+01  0.58444068019E+02  0.12673683904E+03  0.13969221145E+03  0.47000000000E+01 0.  1.
<mgrwt>
<rscale>  0 0.10770961E+03</rscale>
<asrwt>0</asrwt>
<pdfrwt beam="1">  1        2 0.16761399E+00 0.10786018E+03</pdfrwt>
<pdfrwt beam="2">  1       -2 0.18315454E-02 0.10786018E+03</pdfrwt>
<totfact> 0.19177739E+04</totfact>
</mgrwt>
</event>
<event>
 8    1  0.6836165E-004  0.1087714E+03  0.7546771E-02  0.1263377E+00
         -1   -1    0    0    0  501 -0.00000000000E+00  0.00000000000E+00  0.11350428468E+02  0.11350428468E+02  0.00000000000E+00 0.  1.
          1   -1    0    0  501    0  0.00000000000E+00 -0.00000000000E+00 -0.10518429699E+04  0.10518429699E+04  0.00000000000E+00 0. -1.
         23    2    1    2    0    0 -0.46094113549E+02  0.38754122311E+02 -0.59594676834E+03  0.60579185915E+03  0.90579670024E+02 0.  0.
         23    2    1    2    0    0  0.46094113549E+02 -0.38754122311E+02 -0.44454577312E+03  0.45740153925E+03  0.89267431930E+02 0.  0.
          5    1    3    3  502    0  0.16552156490E+02  0.40730576222E+02 -0.19512946379E+03  0.20007636383E+03  0.47000000000E+01 0. -1.
         -5    1    3    3    0  502 -0.62646270039E+02 -0.19764539118E+01 -0.40081730455E+03  0.40571549533E+03  0.47000000000E+01 0.  1.
          5    1    4    4  503    0 -0.13094741338E+02  0.19461657653E+02 -0.12090787207E+03  0.12325190423E+03  0.47000000000E+01 0. -1.
         -5    1    4    4    0  503  0.59188854887E+02 -0.58215779963E+02 -0.32363790106E+03  0.33414963502E+03  0.47000000000E+01 0.  1.
<mgrwt>
<rscale>  0 0.10849783E+03</rscale>
<asrwt>0</asrwt>
<pdfrwt beam="1">  1        1 0.16182202E+00 0.10877144E+03</pdfrwt>
<pdfrwt beam="2">  1       -1 0.17462195E-02 0.10877144E+03</pdfrwt>
<totfact> 0.11618559E+04</totfact>
</mgrwt>
</event>
<event>
 8    1  0.6836165E-004  0.1089868E+03  0.7546771E-02  0.1269566E+00
         -1   -1    0    0    0  501 -0.00000000000E+00  0.00000000000E+00  0.12908847459E+03  0.12908847459E+03  0.00000000000E+00 0.  1.
          1   -1    0    0  501    0  0.00000000000E+00 -0.00000000000E+00 -0.15250911880E+03  0.15250911880E+03  0.00000000000E+00 0. -1.
         23    2    1    2    0    0  0.26112006526E+02 -0.15953310009E+02 -0.10790366521E+03  0.14370090251E+03  0.89835424144E+02 0.  0.
         23    2    1    2    0    0 -0.26112006526E+02  0.15953310009E+02  0.84483020996E+02  0.13789669089E+03  0.10460292318E+03 0.  0.
          5    1    4    4  502    0  0.20771756107E+02  0.15064718141E+02  0.86876835958E+02  0.90708798970E+02  0.47000000000E+01 0. -1.
         -5    1    3    3    0  503 -0.20517389561E+01 -0.39066938420E+02 -0.12292260339E+02  0.41274992120E+02  0.47000000000E+01 0.  1.
          5    1    3    3  503    0  0.28163745482E+02  0.23113628410E+02 -0.95611404866E+02  0.10242591039E+03  0.47000000000E+01 0. -1.
         -5    1    4    4    0  502 -0.46883762633E+02  0.88859186792E+00 -0.23938149615E+01  0.47187891924E+02  0.47000000000E+01 0.  1.
<mgrwt>
<rscale>  0 0.10528133E+03</rscale>
<asrwt>0</asrwt>
<pdfrwt beam="1">  1        1 0.23462941E-01 0.10898677E+03</pdfrwt>
<pdfrwt beam="2">  1       -1 0.19859765E-01 0.10898677E+03</pdfrwt>
<totfact> 0.40127510E+03</totfact>
</mgrwt>
</event>
<event>
 8    1  0.6836165E-004  0.1060216E+03  0.7546771E-02  0.1270070E+00
         -1   -1    0    0    0  501 -0.00000000000E+00  0.00000000000E+00  0.17356574767E+02  0.17356574767E+02  0.00000000000E+00 0.  1.
          1   -1    0    0  501    0  0.00000000000E+00 -0.00000000000E+00 -0.82079919180E+03  0.82079919180E+03  0.00000000000E+00 0. -1.
         23    2    1    2    0    0  0.27274605419E+02 -0.30168650705E+02 -0.20222954975E+03  0.22833607514E+03  0.97910779976E+02 0.  0.
         23    2    1    2    0    0 -0.27274605419E+02  0.30168650705E+02 -0.60121306729E+03  0.60981969143E+03  0.93642149614E+02 0.  0.
          5    1    3    3  502    0  0.19149004397E+02  0.11545205280E+02 -0.17745531797E+03  0.17892025042E+03  0.47000000000E+01 0. -1.
         -5    1    3    3    0  502  0.81256010225E+01 -0.41713855985E+02 -0.24774231776E+02  0.49415824724E+02  0.47000000000E+01 0.  1.
          5    1    4    4  503    0 -0.95527731717E+01  0.52742092575E+02 -0.53242627988E+03  0.53513812919E+03  0.47000000000E+01 0. -1.
         -5    1    4    4    0  503 -0.17721832248E+02 -0.22573441870E+02 -0.68786787414E+02  0.74681562241E+02  0.47000000000E+01 0.  1.
<mgrwt>
<rscale>  0 0.10502538E+03</rscale>
<asrwt>0</asrwt>
<pdfrwt beam="1">  1        1 0.12627676E+00 0.10602157E+03</pdfrwt>
<pdfrwt beam="2">  1       -1 0.26702431E-02 0.10602157E+03</pdfrwt>
<totfact> 0.93901728E+03</totfact>
</mgrwt>
</event>
<event>
 8    1  0.6836165E-004  0.1157682E+03  0.7546771E-02  0.1250280E+00
          3   -1    0    0  501    0  0.00000000000E+00  0.00000000000E+00  0.42549651289E+02  0.42549651289E+02  0.00000000000E+00 0. -1.
         -3   -1    0    0    0  501 -0.00000000000E+00 -0.00000000000E+00 -0.32306832134E+03  0.32306832134E+03  0.00000000000E+00 0.  1.
         23    2    1    2    0    0 -0.68099238498E+02  0.17684051034E+02 -0.16961236402E+03  0.20535487699E+03  0.91934974457E+02 0.  0.
         23    2    1    2    0    0  0.68099238498E+02 -0.17684051034E+02 -0.11090630603E+03  0.16026309564E+03  0.91835827228E+02 0.  0.
          5    1    3    3  502    0 -0.33483225599E+02  0.20870978557E+02 -0.87160695167E+01  0.40679036496E+02  0.47000000000E+01 0. -1.
         -5    1    3    3    0  502 -0.34616012899E+02 -0.31869275233E+01 -0.16089629450E+03  0.16467584049E+03  0.47000000000E+01 0.  1.
          5    1    4    4  503    0  0.88359176176E+01  0.34584749878E+02 -0.27779537223E+02  0.45474949726E+02  0.47000000000E+01 0. -1.
         -5    1    4    4    0  503  0.59263320881E+02 -0.52268800912E+02 -0.83126768805E+02  0.11478814591E+03  0.47000000000E+01 0.  1.
<mgrwt>
<rscale>  0 0.11574849E+03</rscale>
<asrwt>0</asrwt>
<pdfrwt beam="1">  1        3 0.65461002E-02 0.11576818E+03</pdfrwt>
<pdfrwt beam="2">  1       -3 0.49702819E-01 0.11576818E+03</pdfrwt>
<totfact> 0.13388729E+03</totfact>
</mgrwt>
</event>
<event>
 8    1  0.6836165E-004  0.9374307E+02  0.7546771E-02  0.1295120E+00
         -2   -1    0    0    0  501 -0.00000000000E+00  0.00000000000E+00  0.51020050832E+02  0.51020050832E+02  0.00000000000E+00 0.  1.
          2   -1    0    0  501    0  0.00000000000E+00 -0.00000000000E+00 -0.33233907822E+03  0.33233907822E+03  0.00000000000E+00 0. -1.
         23    2    1    2    0    0  0.37842808797E+01 -0.18348713304E+02 -0.69288575566E+01  0.93998789353E+02  0.91851876796E+02 0.  0.
         23    2    1    2    0    0 -0.37842808797E+01  0.18348713304E+02 -0.27439016983E+03  0.28936033970E+03  0.89935781698E+02 0.  0.
          5    1    4    4  502    0  0.35475522795E+02  0.11503231384E+02 -0.21110266856E+03  0.21442309513E+03  0.47000000000E+01 0. -1.
         -5    1    4    4    0  502 -0.39259803675E+02  0.68454819199E+01 -0.63287501272E+02  0.74937244576E+02  0.47000000000E+01 0.  1.
          5    1    3    3  503    0 -0.45386458230E+00  0.37163687480E+02  0.15111848999E+01  0.37492923866E+02  0.47000000000E+01 0. -1.
         -5    1    3    3    0  503  0.42381454620E+01 -0.55512400784E+02 -0.84400424566E+01  0.56505865487E+02  0.47000000000E+01 0.  1.
<mgrwt>
<rscale>  0 0.93270347E+02</rscale>
<asrwt>0</asrwt>
<pdfrwt beam="1">  1        2 0.51129088E-01 0.93743071E+02</pdfrwt>
<pdfrwt beam="2">  1       -2 0.78492388E-02 0.93743071E+02</pdfrwt>
<totfact> 0.87914047E+03</totfact>
</mgrwt>
</event>
<event>
 8    1  0.6997081E-004  0.1202443E+03  0.7546771E-02  0.1242887E+00
          1   -1    0    0  501    0  0.00000000000E+00  0.00000000000E+00  0.78934749851E+03  0.78934749851E+03  0.00000000000E+00 0. -1.
         -1   -1    0    0    0  501 -0.00000000000E+00 -0.00000000000E+00 -0.48403367271E+02  0.48403367271E+02  0.00000000000E+00 0.  1.
         23    2    1    2    0    0 -0.53211505699E+02 -0.56054165570E+02  0.70137312239E+03  0.71160589226E+03  0.92114902525E+02 0.  0.
         23    2    1    2    0    0  0.53211505699E+02  0.56054165570E+02  0.39571008853E+02  0.12614497353E+03  0.91504949530E+02 0.  0.
          5    1    3    3  502    0 -0.37256032978E+01 -0.65026522920E+02  0.48719392240E+03  0.49155095039E+03  0.47000000000E+01 0. -1.
         -5    1    4    4    0  503  0.69282177306E+01  0.67517203101E+02  0.74044139978E+01  0.68436015826E+02  0.47000000000E+01 0.  1.
          5    1    4    4  503    0  0.46283287968E+02 -0.11463037531E+02  0.32166594855E+02  0.57708957703E+02  0.47000000000E+01 0. -1.
         -5    1    3    3    0  502 -0.49485902401E+02  0.89723573506E+01  0.21417919999E+03  0.22005494187E+03  0.47000000000E+01 0.  1.
<mgrwt>
<rscale>  0 0.12012746E+03</rscale>
<asrwt>0</asrwt>
<pdfrwt beam="1">  1        1 0.12143807E+00 0.12024429E+03</pdfrwt>
<pdfrwt beam="2">  1       -1 0.74466725E-02 0.12024429E+03</pdfrwt>
<totfact> 0.22229257E+03</totfact>
</mgrwt>
</event>
<event>
 8    1  0.6836165E-004  0.9319263E+02  0.7546771E-02  0.1297874E+00
         -1   -1    0    0    0  501 -0.00000000000E+00  0.00000000000E+00  0.15839541615E+02  0.15839541615E+02  0.00000000000E+00 0.  1.
          1   -1    0    0  501    0  0.00000000000E+00 -0.00000000000E+00 -0.61689282754E+03  0.61689282754E+03  0.00000000000E+00 0. -1.
         23    2    1    2    0    0  0.93965935131E+00  0.18182322301E+02 -0.18324353688E+03  0.20557981440E+03  0.91396862498E+02 0.  0.
         23    2    1    2    0    0 -0.93965935131E+00 -0.18182322301E+02 -0.41780974905E+03  0.42715255476E+03  0.86964583809E+02 0.  0.
          5    1    4    4  502    0  0.21505322101E+02 -0.45612003917E+02 -0.29207260837E+03  0.29643115953E+03  0.47000000000E+01 0. -1.
         -5    1    4    4    0  502 -0.22444981452E+02  0.27429681616E+02 -0.12573714068E+03  0.13072139523E+03  0.47000000000E+01 0.  1.
          5    1    3    3  503    0  0.36452770477E+02  0.14195326304E+02 -0.15459644122E+03  0.15953827566E+03  0.47000000000E+01 0. -1.
         -5    1    3    3    0  503 -0.35513111126E+02  0.39869959970E+01 -0.28647095662E+02  0.46041538732E+02  0.47000000000E+01 0.  1.
<mgrwt>
<rscale>  0 0.92087463E+02</rscale>
<asrwt>0</asrwt>
<pdfrwt beam="1">  1        1 0.94906608E-01 0.93192630E+02</pdfrwt>
<pdfrwt beam="2">  1       -1 0.24368521E-02 0.93192630E+02</pdfrwt>
<totfact> 0.15919989E+04</totfact>
</mgrwt>
</event>
<event>
 8    1  0.6836165E-004  0.9859067E+02  0.7546771E-02  0.1284120E+00
          1   -1    0    0  501    0  0.00000000000E+00  0.00000000000E+00  0.21270059008E+03  0.21270059008E+03  0.00000000000E+00 0. -1.
         -1   -1    0    0    0  501 -0.00000000000E+00 -0.00000000000E+00 -0.47862795344E+02  0.47862795344E+02  0.00000000000E+00 0.  1.
         23    2    1    2    0    0 -0.12515885687E+02 -0.26889606755E+02  0.11373799151E+03  0.14951695287E+03  0.92408279598E+02 0.  0.
         23    2    1    2    0    0  0.12515885687E+02  0.26889606755E+02  0.51099803224E+02  0.11104643255E+03  0.94023518046E+02 0.  0.
          5    1    4    4  502    0 -0.14515450932E+02 -0.28114079946E+02  0.35186580824E+02  0.47552973378E+02  0.47000000000E+01 0. -1.
         -5    1    3    3    0  503 -0.10414097835E+02  0.32035893870E+02  0.62965409380E+02  0.71564549242E+02  0.47000000000E+01 0.  1.
          5    1    3    3  503    0 -0.21017878518E+01 -0.58925500625E+02  0.50772582129E+02  0.77952403632E+02  0.47000000000E+01 0. -1.
         -5    1    4    4    0  502  0.27031336619E+02  0.55003686700E+02  0.15913222400E+02  0.63493459169E+02  0.47000000000E+01 0.  1.
<mgrwt>
<rscale>  0 0.98203598E+02</rscale>
<asrwt>0</asrwt>
<pdfrwt beam="1">  1        1 0.32723167E-01 0.98590670E+02</pdfrwt>
<pdfrwt beam="2">  1       -1 0.73635071E-02 0.98590670E+02</pdfrwt>
<totfact> 0.12105038E+04</totfact>
</mgrwt>
</event>
<event>
 8    1  0.7125791E-004  0.9633435E+02  0.7546771E-02  0.1289012E+00
          1   -1    0    0  501    0  0.00000000000E+00  0.00000000000E+00  0.35238245885E+03  0.35238245885E+03  0.00000000000E+00 0. -1.
         -1   -1    0    0    0  501 -0.00000000000E+00 -0.00000000000E+00 -0.44980666655E+02  0.44980666655E+02  0.00000000000E+00 0.  1.
         23    2    1    2    0    0 -0.21006708765E+02 -0.19484292024E+02  0.28364750377E+03  0.29956003291E+03  0.91974928508E+02 0.  0.
         23    2    1    2    0    0  0.21006708765E+02  0.19484292024E+02  0.23754288422E+02  0.97803092592E+02  0.90444785661E+02 0.  0.
          5    1    4    4  502    0 -0.11461216277E+02 -0.30853057371E+02  0.16998136111E+02  0.37340290021E+02  0.47000000000E+01 0. -1.
         -5    1    4    4    0  502  0.32467925041E+02  0.50337349395E+02  0.67561523110E+01  0.60462802570E+02  0.47000000000E+01 0.  1.
          5    1    3    3  503    0 -0.38953894113E+02 -0.47964049791E+02  0.17019015919E+03  0.18112077800E+03  0.47000000000E+01 0. -1.
         -5    1    3    3    0  503  0.17947185348E+02  0.28479757767E+02  0.11345734458E+03  0.11843925491E+03  0.47000000000E+01 0.  1.
<mgrwt>
<rscale>  0 0.95967305E+02</rscale>
<asrwt>0</asrwt>
<pdfrwt beam="1">  1        1 0.54212684E-01 0.96334350E+02</pdfrwt>
<pdfrwt beam="2">  1       -1 0.69201028E-02 0.96334350E+02</pdfrwt>
<totfact> 0.71388805E+03</totfact>
</mgrwt>
</event>
<event>
 8    1  0.6836165E-004  0.9526863E+02  0.7546771E-02  0.1291931E+00
         -2   -1    0    0    0  501 -0.00000000000E+00  0.00000000000E+00  0.15366561870E+02  0.15366561870E+02  0.00000000000E+00 0.  1.
          2   -1    0    0  501    0  0.00000000000E+00 -0.00000000000E+00 -0.73084068022E+03  0.73084068022E+03  0.00000000000E+00 0. -1.
         23    2    1    2    0    0  0.18087625782E+02 -0.21144442850E+02 -0.53308167062E+03  0.54152763423E+03  0.91114551036E+02 0.  0.
         23    2    1    2    0    0 -0.18087625782E+02  0.21144442850E+02 -0.18239244773E+03  0.20467960786E+03  0.88614260795E+02 0.  0.
          5    1    3    3  502    0  0.53770889874E+02 -0.18322799109E+02 -0.26767732354E+03  0.27367914262E+03  0.47000000000E+01 0. -1.
         -5    1    3    3    0  502 -0.35683264092E+02 -0.28216437410E+01 -0.26540434708E+03  0.26784849161E+03  0.47000000000E+01 0.  1.
          5    1    4    4  503    0  0.34821915380E+02  0.81437841124E+01 -0.52008806099E+02  0.63292123698E+02  0.47000000000E+01 0. -1.
         -5    1    4    4    0  503 -0.52909541162E+02  0.13000658737E+02 -0.13038364163E+03  0.14138748416E+03  0.47000000000E+01 0.  1.
<mgrwt>
<rscale>  0 0.94665830E+02</rscale>
<asrwt>0</asrwt>
<pdfrwt beam="1">  1        2 0.11243705E+00 0.95268626E+02</pdfrwt>
<pdfrwt beam="2">  1       -2 0.23640860E-02 0.95268626E+02</pdfrwt>
<totfact> 0.21993383E+04</totfact>
</mgrwt>
</event>
<event>
 8    1  0.6836165E-004  0.1021428E+03  0.7546771E-02  0.1276997E+00
         -1   -1    0    0    0  501 -0.00000000000E+00  0.00000000000E+00  0.15380658291E+02  0.15380658291E+02  0.00000000000E+00 0.  1.
          1   -1    0    0  501    0  0.00000000000E+00 -0.00000000000E+00 -0.70673125397E+03  0.70673125397E+03  0.00000000000E+00 0. -1.
         23    2    1    2    0    0  0.74253662479E+01 -0.39972522698E+02 -0.26016568489E+03  0.27949834826E+03  0.93702745163E+02 0.  0.
         23    2    1    2    0    0 -0.74253662479E+01  0.39972522698E+02 -0.43118491078E+03  0.44261356400E+03  0.91287464147E+02 0.  0.
          5    1    4    4  502    0 -0.32184923539E+02  0.58977350450E+02 -0.32139631891E+03  0.32837764993E+03  0.47000000000E+01 0. -1.
         -5    1    3    3    0  503 -0.12957647014E+02 -0.58407624670E+02 -0.23287423897E+03  0.24048254076E+03  0.47000000000E+01 0.  1.
          5    1    3    3  503    0  0.20383013261E+02  0.18435101972E+02 -0.27291445922E+02  0.39015807499E+02  0.47000000000E+01 0. -1.
         -5    1    4    4    0  502  0.24759557291E+02 -0.19004827752E+02 -0.10978859188E+03  0.11423591406E+03  0.47000000000E+01 0.  1.
<mgrwt>
<rscale>  0 0.10158544E+03</rscale>
<asrwt>0</asrwt>
<pdfrwt beam="1">  1        1 0.10872789E+00 0.10214276E+03</pdfrwt>
<pdfrwt beam="2">  1       -1 0.23662551E-02 0.10214276E+03</pdfrwt>
<totfact> 0.13866882E+04</totfact>
</mgrwt>
</event>
<event>
 8    1  0.6836165E-004  0.9652383E+02  0.7546771E-02  0.1288690E+00
         -2   -1    0    0    0  501 -0.00000000000E+00  0.00000000000E+00  0.21509629438E+02  0.21509629438E+02  0.00000000000E+00 0.  1.
          2   -1    0    0  501    0  0.00000000000E+00 -0.00000000000E+00 -0.85402659655E+03  0.85402659655E+03  0.00000000000E+00 0. -1.
         23    2    1    2    0    0  0.94280772090E+01  0.32083778829E+02 -0.10806403492E+03  0.14489542654E+03  0.90546073828E+02 0.  0.
         23    2    1    2    0    0 -0.94280772090E+01 -0.32083778829E+02 -0.72445293219E+03  0.73064079944E+03  0.88801291374E+02 0.  0.
          5    1    4    4  502    0 -0.48732512545E+02 -0.18158002907E+02 -0.35676570803E+03  0.36056681943E+03  0.47000000000E+01 0. -1.
         -5    1    3    3    0  503  0.76911594191E+01 -0.29942436979E+02 -0.20198478923E+02  0.37225958903E+02  0.47000000000E+01 0.  1.
          5    1    3    3  503    0  0.17369177899E+01  0.62026215809E+02 -0.87865555994E+02  0.10766946764E+03  0.47000000000E+01 0. -1.
         -5    1    4    4    0  502  0.39304435336E+02 -0.13925775923E+02 -0.36768722416E+03  0.37007398001E+03  0.47000000000E+01 0.  1.
<mgrwt>
<rscale>  0 0.96112504E+02</rscale>
<asrwt>0</asrwt>
<pdfrwt beam="1">  1        2 0.13138869E+00 0.96523826E+02</pdfrwt>
<pdfrwt beam="2">  1       -2 0.33091741E-02 0.96523826E+02</pdfrwt>
<totfact> 0.11169720E+04</totfact>
</mgrwt>
</event>
<event>
 8    1  0.6836165E-004  0.1052746E+03  0.7546771E-02  0.1273007E+00
          2   -1    0    0  501    0  0.00000000000E+00  0.00000000000E+00  0.10731254455E+04  0.10731254455E+04  0.00000000000E+00 0. -1.
         -2   -1    0    0    0  501 -0.00000000000E+00 -0.00000000000E+00 -0.12199278546E+02  0.12199278546E+02  0.00000000000E+00 0.  1.
         23    2    1    2    0    0  0.35030959367E+02 -0.35397883784E+02  0.79101170398E+03  0.79798637892E+03  0.92750023284E+02 0.  0.
         23    2    1    2    0    0 -0.35030959367E+02  0.35397883784E+02  0.26991446296E+03  0.28733834511E+03  0.85025460693E+02 0.  0.
          5    1    3    3  502    0 -0.22592043299E+02  0.15206560840E+02  0.16852682011E+03  0.17077768885E+03  0.47000000000E+01 0. -1.
         -5    1    3    3    0  502  0.57623002666E+02 -0.50604444624E+02  0.62248488387E+03  0.62720869007E+03  0.47000000000E+01 0.  1.
          5    1    4    4  503    0 -0.59177654076E+02  0.28306965143E+02  0.23508882705E+03  0.24411498442E+03  0.47000000000E+01 0. -1.
         -5    1    4    4    0  503  0.24146694709E+02  0.70909186403E+01  0.34825635916E+02  0.43223360692E+02  0.47000000000E+01 0.  1.
<mgrwt>
<rscale>  0 0.10354816E+03</rscale>
<asrwt>0</asrwt>
<pdfrwt beam="1">  1        2 0.16509615E+00 0.10527462E+03</pdfrwt>
<pdfrwt beam="2">  1       -2 0.18768129E-02 0.10527462E+03</pdfrwt>
<totfact> 0.18882175E+04</totfact>
</mgrwt>
</event>
<event>
 8    1  0.6836165E-004  0.9184652E+02  0.7546771E-02  0.1298599E+00
         -2   -1    0    0    0  501 -0.00000000000E+00  0.00000000000E+00  0.66693146577E+02  0.66693146577E+02  0.00000000000E+00 0.  1.
          2   -1    0    0  501    0  0.00000000000E+00 -0.00000000000E+00 -0.15342712785E+03  0.15342712785E+03  0.00000000000E+00 0. -1.
         23    2    1    2    0    0 -0.98380683808E+01  0.55999687901E+01  0.30146965320E+01  0.91895983845E+02  0.91146235313E+02 0.  0.
         23    2    1    2    0    0  0.98380683808E+01 -0.55999687901E+01 -0.89748677804E+02  0.12822429058E+03  0.90876269110E+02 0.  0.
          5    1    4    4  502    0  0.40056141370E+02 -0.31718827791E+02 -0.48163076076E+02  0.70372937944E+02  0.47000000000E+01 0. -1.
         -5    1    4    4    0  502 -0.30218072989E+02  0.26118859001E+02 -0.41585601729E+02  0.57851352636E+02  0.47000000000E+01 0.  1.
          5    1    3    3  503    0  0.13888432252E+02 -0.32055793777E+02 -0.21075193559E+02  0.41069651188E+02  0.47000000000E+01 0. -1.
         -5    1    3    3    0  503 -0.23726500633E+02  0.37655762567E+02  0.24089890091E+02  0.50826332658E+02  0.47000000000E+01 0.  1.
<mgrwt>
<rscale>  0 0.91779472E+02</rscale>
<asrwt>0</asrwt>
<pdfrwt beam="1">  1        2 0.23604173E-01 0.91846521E+02</pdfrwt>
<pdfrwt beam="2">  1       -2 0.10260484E-01 0.91846521E+02</pdfrwt>
<totfact> 0.13195488E+04</totfact>
</mgrwt>
</event>
<event>
 8    1  0.6836165E-004  0.1140613E+03  0.7546771E-02  0.1253396E+00
          1   -1    0    0  501    0  0.00000000000E+00  0.00000000000E+00  0.35780320309E+03  0.35780320309E+03  0.00000000000E+00 0. -1.
         -1   -1    0    0    0  501 -0.00000000000E+00 -0.00000000000E+00 -0.24083016146E+03  0.24083016146E+03  0.00000000000E+00 0.  1.
         23    2    1    2    0    0 -0.67577887474E+02  0.41733905889E+01 -0.21737741745E+03  0.24548508714E+03  0.91792147389E+02 0.  0.
         23    2    1    2    0    0  0.67577887474E+02 -0.41733905889E+01  0.33435045908E+03  0.35314827742E+03  0.91319703729E+02 0.  0.
          5    1    3    3  502    0 -0.53061768308E+02 -0.34861582279E+02 -0.82264893299E+02  0.10402155471E+03  0.47000000000E+01 0. -1.
         -5    1    3    3    0  502 -0.14516119166E+02  0.39034972868E+02 -0.13511252416E+03  0.14146353242E+03  0.47000000000E+01 0.  1.
          5    1    4    4  503    0  0.31866644122E+02  0.29563381157E+02  0.26166140848E+03  0.26528901071E+03  0.47000000000E+01 0. -1.
         -5    1    4    4    0  503  0.35711243352E+02 -0.33736771746E+02  0.72689050600E+02  0.87859266709E+02  0.47000000000E+01 0.  1.
<mgrwt>
<rscale>  0 0.11396624E+03</rscale>
<asrwt>0</asrwt>
<pdfrwt beam="1">  1        1 0.55046647E-01 0.11406133E+03</pdfrwt>
<pdfrwt beam="2">  1       -1 0.37050794E-01 0.11406133E+03</pdfrwt>
<totfact> 0.49994401E+02</totfact>
</mgrwt>
</event>
<event>
 8    1  0.6836165E-004  0.9382878E+02  0.7546771E-02  0.1306299E+00
         -2   -1    0    0    0  501 -0.00000000000E+00  0.00000000000E+00  0.48220362619E+02  0.48220362619E+02  0.00000000000E+00 0. -1.
          2   -1    0    0  501    0  0.00000000000E+00 -0.00000000000E+00 -0.18107673513E+03  0.18107673513E+03  0.00000000000E+00 0.  1.
         23    2    1    2    0    0 -0.10288382331E+02 -0.14167849607E+02 -0.10971437614E+03  0.13265656717E+03  0.72484078985E+02 0.  0.
         23    2    1    2    0    0  0.10288382331E+02  0.14167849607E+02 -0.23141996365E+02  0.96640530580E+02  0.92180591132E+02 0.  0.
          5    1    3    3  502    0  0.24763415479E+02 -0.25307370981E+02 -0.39507066277E+02  0.53259628781E+02  0.47000000000E+01 0. -1.
         -5    1    4    4    0  503 -0.38807356959E+02  0.22647451468E+01 -0.23945567482E+02  0.45897932707E+02  0.47000000000E+01 0.  1.
          5    1    4    4  503    0  0.49095739291E+02  0.11903104461E+02  0.80357111750E+00  0.50742597872E+02  0.47000000000E+01 0. -1.
         -5    1    3    3    0  502 -0.35051797810E+02  0.11139521373E+02 -0.70207309868E+02  0.79396938385E+02  0.47000000000E+01 0.  1.
<mgrwt>
<rscale>  0 0.88591384E+02</rscale>
<asrwt>0</asrwt>
<pdfrwt beam="1">  1        2 0.27857959E-01 0.93828781E+02</pdfrwt>
<pdfrwt beam="2">  1       -2 0.74185173E-02 0.93828781E+02</pdfrwt>
<totfact> 0.18195048E+04</totfact>
</mgrwt>
</event>
<event>
 8    1  0.6836165E-004  0.1430949E+03  0.7546771E-02  0.1209477E+00
          2   -1    0    0  501    0  0.00000000000E+00  0.00000000000E+00  0.29063361157E+03  0.29063361157E+03  0.00000000000E+00 0. -1.
         -2   -1    0    0    0  501 -0.00000000000E+00 -0.00000000000E+00 -0.71048552699E+02  0.71048552699E+02  0.00000000000E+00 0.  1.
         23    2    1    2    0    0 -0.61732354125E+02  0.90844089854E+02  0.88913884315E+02  0.16846906540E+03  0.91720308356E+02 0.  0.
         23    2    1    2    0    0  0.61732354125E+02 -0.90844089854E+02  0.13067117456E+03  0.19321309887E+03  0.90514161923E+02 0.  0.
          5    1    3    3  502    0 -0.12973387559E+02  0.54410546480E+02  0.91522082326E+02  0.10736478895E+03  0.47000000000E+01 0. -1.
         -5    1    3    3    0  502 -0.48758966566E+02  0.36433543374E+02 -0.26081980103E+01  0.61104276448E+02  0.47000000000E+01 0.  1.
          5    1    4    4  503    0 -0.11339712713E+02 -0.29958825176E+02  0.10789915918E+01  0.32394050584E+02  0.47000000000E+01 0. -1.
         -5    1    4    4    0  503  0.73072066838E+02 -0.60885264677E+02  0.12959218297E+03  0.16081904829E+03  0.47000000000E+01 0.  1.
<mgrwt>
<rscale>  0 0.14290197E+03</rscale>
<asrwt>0</asrwt>
<pdfrwt beam="1">  1        2 0.44712863E-01 0.14309489E+03</pdfrwt>
<pdfrwt beam="2">  1       -2 0.10930547E-01 0.14309489E+03</pdfrwt>
<totfact> 0.62336542E+03</totfact>
</mgrwt>
</event>
<event>
 8    1  0.6836165E-004  0.9536636E+02  0.7546771E-02  0.1291038E+00
         -2   -1    0    0    0  501 -0.00000000000E+00  0.00000000000E+00  0.81345285544E+03  0.81345285544E+03  0.00000000000E+00 0.  1.
          2   -1    0    0  501    0  0.00000000000E+00 -0.00000000000E+00 -0.12240766585E+02  0.12240766585E+02  0.00000000000E+00 0. -1.
         23    2    1    2    0    0 -0.98572684471E+00  0.27771665402E+02  0.52767253226E+03  0.53600649465E+03  0.89957900950E+02 0.  0.
         23    2    1    2    0    0  0.98572684471E+00 -0.27771665402E+02  0.27353955659E+03  0.28968712738E+03  0.91227768199E+02 0.  0.
          5    1    3    3  502    0  0.39051582211E+02  0.12492350670E+02  0.14034077492E+03  0.14628297236E+03  0.47000000000E+01 0. -1.
         -5    1    4    4    0  503 -0.15413446514E+02  0.30263121498E+02  0.83949560324E+02  0.90681031836E+02  0.47000000000E+01 0.  1.
          5    1    4    4  503    0  0.16399173359E+02 -0.58034786900E+02  0.18958999627E+03  0.19900609554E+03  0.47000000000E+01 0. -1.
         -5    1    3    3    0  502 -0.40037309055E+02  0.15279314732E+02  0.38733175735E+03  0.38972352229E+03  0.47000000000E+01 0.  1.
<mgrwt>
<rscale>  0 0.95061393E+02</rscale>
<asrwt>0</asrwt>
<pdfrwt beam="1">  1        2 0.18831955E-02 0.95366361E+02</pdfrwt>
<pdfrwt beam="2">  1       -2 0.12514655E+00 0.95366361E+02</pdfrwt>
<totfact> 0.27540592E+03</totfact>
</mgrwt>
</event>
<event>
 8    1  0.6836165E-004  0.1218810E+03  0.7546771E-02  0.1241721E+00
         -2   -1    0    0    0  501 -0.00000000000E+00  0.00000000000E+00  0.10961828151E+03  0.10961828151E+03  0.00000000000E+00 0.  1.
          2   -1    0    0  501    0  0.00000000000E+00 -0.00000000000E+00 -0.40090591754E+03  0.40090591754E+03  0.00000000000E+00 0. -1.
         23    2    1    2    0    0  0.74299094955E+02 -0.31021204289E+02  0.62983589922E+02  0.13719300899E+03  0.91500374262E+02 0.  0.
         23    2    1    2    0    0 -0.74299094955E+02  0.31021204289E+02 -0.35427122595E+03  0.37333119006E+03  0.85938380893E+02 0.  0.
          5    1    3    3  502    0  0.16362215217E+02  0.20420074666E+02 -0.12091197517E+02  0.29205968458E+02  0.47000000000E+01 0. -1.
         -5    1    4    4    0  503 -0.43713500848E+02  0.39033444568E+02 -0.92415728056E+02  0.10953189829E+03  0.47000000000E+01 0.  1.
          5    1    4    4  503    0 -0.30585594106E+02 -0.80122402798E+01 -0.26185549790E+03  0.26379929177E+03  0.47000000000E+01 0. -1.
         -5    1    3    3    0  502  0.57936879738E+02 -0.51441278954E+02  0.75074787439E+02  0.10798704053E+03  0.47000000000E+01 0.  1.
<mgrwt>
<rscale>  0 0.12083817E+03</rscale>
<asrwt>0</asrwt>
<pdfrwt beam="1">  1        2 0.61677833E-01 0.12188104E+03</pdfrwt>
<pdfrwt beam="2">  1       -2 0.16864351E-01 0.12188104E+03</pdfrwt>
<totfact> 0.21808904E+03</totfact>
</mgrwt>
</event>
<event>
 8    1  0.6836165E-004  0.1273124E+03  0.7546771E-02  0.1235916E+00
          2   -1    0    0  501    0  0.00000000000E+00  0.00000000000E+00  0.56105298001E+03  0.56105298001E+03  0.00000000000E+00 0. -1.
         -2   -1    0    0    0  501 -0.00000000000E+00 -0.00000000000E+00 -0.36277195911E+02  0.36277195911E+02  0.00000000000E+00 0.  1.
         23    2    1    2    0    0 -0.73999850761E+02 -0.73552197716E+01  0.40913527930E+03  0.42533836211E+03  0.89392216370E+02 0.  0.
         23    2    1    2    0    0  0.73999850761E+02  0.73552197716E+01  0.11564050480E+03  0.17199181381E+03  0.10333624967E+03 0.  0.
          5    1    3    3  502    0 -0.34014240878E+02 -0.33253663030E+02  0.32534064823E+03  0.32883339562E+03  0.47000000000E+01 0. -1.
         -5    1    4    4    0  503  0.27330895896E+02  0.48386127396E+02  0.22967419063E+02  0.60314074090E+02  0.47000000000E+01 0.  1.
          5    1    4    4  503    0  0.46668954865E+02 -0.41030907624E+02  0.92673085736E+02  0.11167773972E+03  0.47000000000E+01 0. -1.
         -5    1    3    3    0  502 -0.39985609884E+02  0.25898443258E+02  0.83794631070E+02  0.96504966489E+02  0.47000000000E+01 0.  1.
<mgrwt>
<rscale>  0 0.12445989E+03</rscale>
<asrwt>0</asrwt>
<pdfrwt beam="1">  1        2 0.86315837E-01 0.12731244E+03</pdfrwt>
<pdfrwt beam="2">  1       -2 0.55811075E-02 0.12731244E+03</pdfrwt>
<totfact> 0.85985318E+03</totfact>
</mgrwt>
</event>
<event>
 8    1  0.6836165E-004  0.9947664E+02  0.7546771E-02  0.1282859E+00
          2   -1    0    0  501    0  0.00000000000E+00  0.00000000000E+00  0.76468908256E+03  0.76468908256E+03  0.00000000000E+00 0. -1.
         -2   -1    0    0    0  501 -0.00000000000E+00 -0.00000000000E+00 -0.17204992543E+02  0.17204992543E+02  0.00000000000E+00 0.  1.
         23    2    1    2    0    0  0.10649579326E+02 -0.31847665223E+02  0.16749417955E+03  0.19343515643E+03  0.90747849778E+02 0.  0.
         23    2    1    2    0    0 -0.10649579326E+02  0.31847665223E+02  0.57998991047E+03  0.58845891868E+03  0.93637147574E+02 0.  0.
          5    1    3    3  502    0  0.35604256628E+02  0.13600985683E+02  0.38715319609E+02  0.54530870834E+02  0.47000000000E+01 0. -1.
         -5    1    3    3    0  502 -0.24954677302E+02 -0.45448650906E+02  0.12877885994E+03  0.13890428560E+03  0.47000000000E+01 0.  1.
          5    1    4    4  503    0  0.29532150340E+02  0.43861168973E+02  0.40437010246E+03  0.40783969867E+03  0.47000000000E+01 0. -1.
         -5    1    4    4    0  503 -0.40181729666E+02 -0.12013503750E+02  0.17561980800E+03  0.18061922000E+03  0.47000000000E+01 0.  1.
<mgrwt>
<rscale>  0 0.98790892E+02</rscale>
<asrwt>0</asrwt>
<pdfrwt beam="1">  1        2 0.11764445E+00 0.99476644E+02</pdfrwt>
<pdfrwt beam="2">  1       -2 0.26469225E-02 0.99476644E+02</pdfrwt>
<totfact> 0.17757434E+04</totfact>
</mgrwt>
</event>
<event>
 8    1  0.6836165E-004  0.1057716E+03  0.7546771E-02  0.1274049E+00
         -1   -1    0    0    0  501 -0.00000000000E+00  0.00000000000E+00  0.15072735856E+02  0.15072735856E+02  0.00000000000E+00 0.  1.
          1   -1    0    0  501    0  0.00000000000E+00 -0.00000000000E+00 -0.80170055619E+03  0.80170055619E+03  0.00000000000E+00 0. -1.
         23    2    1    2    0    0 -0.14005437249E+01  0.45139167609E+01 -0.57583745629E+03  0.58547109613E+03  0.10566594237E+03 0.  0.
         23    2    1    2    0    0  0.14005437249E+01 -0.45139167609E+01 -0.21079036405E+03  0.23130219592E+03  0.95109364904E+02 0.  0.
          5    1    4    4  502    0 -0.32976816270E+02 -0.14791766492E+02 -0.18040479828E+03  0.18404958030E+03  0.47000000000E+01 0. -1.
         -5    1    4    4    0  502  0.34377359995E+02  0.10277849731E+02 -0.30385565774E+02  0.47252615618E+02  0.47000000000E+01 0.  1.
          5    1    3    3  503    0 -0.44291991728E+02  0.15140713666E+02 -0.44094956173E+03  0.44345194523E+03  0.47000000000E+01 0. -1.
         -5    1    3    3    0  503  0.42891448003E+02 -0.10626796905E+02 -0.13488789456E+03  0.14201915091E+03  0.47000000000E+01 0.  1.
<mgrwt>
<rscale>  0 0.10303066E+03</rscale>
<asrwt>0</asrwt>
<pdfrwt beam="1">  1        1 0.12333858E+00 0.10577159E+03</pdfrwt>
<pdfrwt beam="2">  1       -1 0.23188818E-02 0.10577159E+03</pdfrwt>
<totfact> 0.11917046E+04</totfact>
</mgrwt>
</event>
<event>
 8    1  0.6836165E-004  0.1029085E+03  0.7546771E-02  0.1275576E+00
         -2   -1    0    0    0  501 -0.00000000000E+00  0.00000000000E+00  0.45717790271E+02  0.45717790271E+02  0.00000000000E+00 0.  1.
          2   -1    0    0  501    0  0.00000000000E+00 -0.00000000000E+00 -0.83568443866E+03  0.83568443866E+03  0.00000000000E+00 0. -1.
         23    2    1    2    0    0 -0.32937869623E+02  0.24837224088E+02 -0.17274003116E+02  0.10188693719E+03  0.91546522765E+02 0.  0.
         23    2    1    2    0    0  0.32937869623E+02 -0.24837224088E+02 -0.77269264528E+03  0.77951529175E+03  0.94278179060E+02 0.  0.
          5    1    4    4  502    0  0.64701925645E+02 -0.13222467161E+02 -0.58575605600E+03  0.58948572499E+03  0.47000000000E+01 0. -1.
         -5    1    3    3    0  503  0.28737487571E+02  0.19007689690E+02  0.64798689395E+01  0.35372505717E+02  0.47000000000E+01 0.  1.
          5    1    3    3  503    0 -0.61675357194E+02  0.58295343977E+01 -0.23753872056E+02  0.66514431471E+02  0.47000000000E+01 0. -1.
         -5    1    4    4    0  502 -0.31764056022E+02 -0.11614756927E+02 -0.18693658928E+03  0.19002956676E+03  0.47000000000E+01 0.  1.
<mgrwt>
<rscale>  0 0.10227862E+03</rscale>
<asrwt>0</asrwt>
<pdfrwt beam="1">  1        2 0.12856683E+00 0.10290853E+03</pdfrwt>
<pdfrwt beam="2">  1       -2 0.70335064E-02 0.10290853E+03</pdfrwt>
<totfact> 0.37508580E+03</totfact>
</mgrwt>
</event>
<event>
 8    1  0.6836165E-004  0.1143980E+03  0.7546771E-02  0.1254930E+00
          3   -1    0    0  501    0  0.00000000000E+00  0.00000000000E+00  0.21067534448E+03  0.21067534448E+03  0.00000000000E+00 0. -1.
         -3   -1    0    0    0  501 -0.00000000000E+00 -0.00000000000E+00 -0.71073166832E+02  0.71073166832E+02  0.00000000000E+00 0.  1.
         23    2    1    2    0    0 -0.68188191510E+02 -0.10683884970E+02  0.11351841259E+02  0.10989088989E+03  0.84754755159E+02 0.  0.
         23    2    1    2    0    0  0.68188191510E+02  0.10683884970E+02  0.12825033639E+03  0.17185762141E+03  0.91231126245E+02 0.  0.
          5    1    4    4  502    0 -0.11095559630E+02  0.28521817594E+02  0.50832751666E+02  0.59520283637E+02  0.47000000000E+01 0. -1.
         -5    1    3    3    0  503 -0.13554735097E+02 -0.43104760054E+02  0.77566404798E+01  0.46086946681E+02  0.47000000000E+01 0.  1.
          5    1    3    3  503    0 -0.54633456413E+02  0.32420875083E+02  0.35952007795E+01  0.63803943212E+02  0.47000000000E+01 0. -1.
         -5    1    4    4    0  502  0.79283751140E+02 -0.17837932624E+02  0.77417584719E+02  0.11233733778E+03  0.47000000000E+01 0.  1.
<mgrwt>
<rscale>  0 0.11310237E+03</rscale>
<asrwt>0</asrwt>
<pdfrwt beam="1">  1        3 0.32411591E-01 0.11439796E+03</pdfrwt>
<pdfrwt beam="2">  1       -3 0.10934333E-01 0.11439796E+03</pdfrwt>
<totfact> 0.13186729E+03</totfact>
</mgrwt>
</event>
<event>
 8    1  0.6836165E-004  0.9810809E+02  0.7546771E-02  0.1284651E+00
         -3   -1    0    0    0  501 -0.00000000000E+00  0.00000000000E+00  0.17727037568E+03  0.17727037568E+03  0.00000000000E+00 0.  1.
          3   -1    0    0  501    0  0.00000000000E+00 -0.00000000000E+00 -0.54709156141E+02  0.54709156141E+02  0.00000000000E+00 0. -1.
         23    2    1    2    0    0  0.23220407757E+02  0.24937398641E+02  0.47932216249E+02  0.10919109555E+03  0.92000743500E+02 0.  0.
         23    2    1    2    0    0 -0.23220407757E+02 -0.24937398641E+02  0.74629003287E+02  0.12278843627E+03  0.91358911789E+02 0.  0.
          5    1    3    3  502    0 -0.12403245413E+02  0.17201718996E+02 -0.21542529505E+02  0.30592649618E+02  0.47000000000E+01 0. -1.
         -5    1    3    3    0  502  0.35623653170E+02  0.77356796448E+01  0.69474745754E+02  0.78598445928E+02  0.47000000000E+01 0.  1.
          5    1    4    4  503    0 -0.38682331064E+02 -0.40440477126E+02  0.13602843891E+02  0.57783062299E+02  0.47000000000E+01 0. -1.
         -5    1    4    4    0  503  0.15461923307E+02  0.15503078486E+02  0.61026159396E+02  0.65005373974E+02  0.47000000000E+01 0.  1.
<mgrwt>
<rscale>  0 0.97957341E+02</rscale>
<asrwt>0</asrwt>
<pdfrwt beam="1">  1        3 0.84167933E-02 0.98108093E+02</pdfrwt>
<pdfrwt beam="2">  1       -3 0.27272365E-01 0.98108093E+02</pdfrwt>
<totfact> 0.26997448E+03</totfact>
</mgrwt>
</event>
<event>
 8    1  0.6836165E-004  0.1092642E+03  0.7546771E-02  0.1262203E+00
          4   -1    0    0  501    0  0.00000000000E+00  0.00000000000E+00  0.14511219186E+02  0.14511219186E+02  0.00000000000E+00 0. -1.
         -4   -1    0    0    0  501 -0.00000000000E+00 -0.00000000000E+00 -0.82454967328E+03  0.82454967328E+03  0.00000000000E+00 0.  1.
         23    2    1    2    0    0 -0.34668225932E+02  0.51750311663E+02 -0.37003515186E+03  0.38582986642E+03  0.89770215367E+02 0.  0.
         23    2    1    2    0    0  0.34668225932E+02 -0.51750311663E+02 -0.44000330224E+03  0.45323102605E+03  0.89081290644E+02 0.  0.
          5    1    3    3  502    0  0.73427637475E+00  0.54959650286E+02 -0.31729527033E+03  0.32205508984E+03  0.47000000000E+01 0. -1.
         -5    1    4    4    0  503 -0.15834091851E+02 -0.54651919537E+02 -0.26007253040E+03  0.26626558517E+03  0.47000000000E+01 0.  1.
          5    1    4    4  503    0  0.50502317783E+02  0.29016078739E+01 -0.17993077184E+03  0.18696544088E+03  0.47000000000E+01 0. -1.
         -5    1    3    3    0  502 -0.35402502307E+02 -0.32093386236E+01 -0.52739881529E+02  0.63774776579E+02  0.47000000000E+01 0.  1.
<mgrwt>
<rscale>  0 0.10912263E+03</rscale>
<asrwt>0</asrwt>
<pdfrwt beam="1">  1        4 0.22324958E-02 0.10926423E+03</pdfrwt>
<pdfrwt beam="2">  1       -4 0.12685377E+00 0.10926423E+03</pdfrwt>
<totfact> 0.65964832E+02</totfact>
</mgrwt>
</event>
<event>
 8    1  0.6836165E-004  0.9267574E+02  0.7546771E-02  0.1297689E+00
         -2   -1    0    0    0  501 -0.00000000000E+00  0.00000000000E+00  0.42367199420E+02  0.42367199420E+02  0.00000000000E+00 0.  1.
          2   -1    0    0  501    0  0.00000000000E+00 -0.00000000000E+00 -0.43045898810E+03  0.43045898810E+03  0.00000000000E+00 0. -1.
         23    2    1    2    0    0 -0.13199979711E+02 -0.11617898256E+02 -0.36666543856E+03  0.37770583989E+03  0.88932236131E+02 0.  0.
         23    2    1    2    0    0  0.13199979711E+02  0.11617898256E+02 -0.21426350111E+02  0.95120347629E+02  0.90992181146E+02 0.  0.
          5    1    3    3  502    0  0.17955954155E+02 -0.42538541083E+02 -0.17920098910E+03  0.18511355504E+03  0.47000000000E+01 0. -1.
         -5    1    3    3    0  502 -0.31155933865E+02  0.30920642826E+02 -0.18746444947E+03  0.19259228485E+03  0.47000000000E+01 0.  1.
          5    1    4    4  503    0  0.50200516967E+02  0.15145356725E+02 -0.14559126662E+01  0.52665770817E+02  0.47000000000E+01 0. -1.
         -5    1    4    4    0  503 -0.37000537256E+02 -0.35274584688E+01 -0.19970437445E+02  0.42454576811E+02  0.47000000000E+01 0.  1.
<mgrwt>
<rscale>  0 0.92166128E+02</rscale>
<asrwt>0</asrwt>
<pdfrwt beam="1">  1        2 0.66224458E-01 0.92675736E+02</pdfrwt>
<pdfrwt beam="2">  1       -2 0.65180309E-02 0.92675736E+02</pdfrwt>
<totfact> 0.88717833E+03</totfact>
</mgrwt>
</event>
<event>
 8    1  0.6836165E-004  0.9606074E+02  0.7546771E-02  0.1294451E+00
         -2   -1    0    0    0  501 -0.00000000000E+00  0.00000000000E+00  0.18437982554E+02  0.18437982554E+02  0.00000000000E+00 0.  1.
          2   -1    0    0  501    0  0.00000000000E+00 -0.00000000000E+00 -0.47803783005E+03  0.47803783005E+03  0.00000000000E+00 0. -1.
         23    2    1    2    0    0 -0.24699592699E+02 -0.18491467852E+02 -0.18296640039E+03  0.20665035648E+03  0.90970665062E+02 0.  0.
         23    2    1    2    0    0  0.24699592699E+02  0.18491467852E+02 -0.27663344711E+03  0.28982545612E+03  0.80751016664E+02 0.  0.
          5    1    4    4  502    0  0.48300139485E+02  0.11179607671E+01 -0.22582609707E+03  0.23098413242E+03  0.47000000000E+01 0. -1.
         -5    1    4    4    0  502 -0.23600546786E+02  0.17373507084E+02 -0.50807350038E+02  0.58841323701E+02  0.47000000000E+01 0.  1.
          5    1    3    3  503    0 -0.45158525872E+02 -0.10080721841E+02 -0.17735343099E+03  0.18335005562E+03  0.47000000000E+01 0. -1.
         -5    1    3    3    0  503  0.20458933172E+02 -0.84107460104E+01 -0.56129693983E+01  0.23300300866E+02  0.47000000000E+01 0.  1.
<mgrwt>
<rscale>  0 0.93560896E+02</rscale>
<asrwt>0</asrwt>
<pdfrwt beam="1">  1        2 0.73544267E-01 0.96060742E+02</pdfrwt>
<pdfrwt beam="2">  1       -2 0.28366133E-02 0.96060742E+02</pdfrwt>
<totfact> 0.27216197E+04</totfact>
</mgrwt>
</event>
<event>
 8    1  0.6836165E-004  0.1244004E+03  0.7546771E-02  0.1236851E+00
         -1   -1    0    0    0  501 -0.00000000000E+00  0.00000000000E+00  0.11301523501E+03  0.11301523501E+03  0.00000000000E+00 0.  1.
          1   -1    0    0  501    0  0.00000000000E+00 -0.00000000000E+00 -0.15332866677E+03  0.15332866677E+03  0.00000000000E+00 0. -1.
         23    2    1    2    0    0 -0.80157371596E+02  0.24063242111E+02  0.26526642104E+02  0.12512401771E+03  0.89152191357E+02 0.  0.
         23    2    1    2    0    0  0.80157371596E+02 -0.24063242111E+02 -0.66840073864E+02  0.14121988407E+03  0.92039210880E+02 0.  0.
          5    1    3    3  502    0 -0.23541468997E+02  0.12867219028E+02 -0.32523040174E+02  0.42421742423E+02  0.47000000000E+01 0. -1.
         -5    1    3    3    0  502 -0.56615902598E+02  0.11196023084E+02  0.59049682278E+02  0.82702275284E+02  0.47000000000E+01 0.  1.
          5    1    4    4  503    0  0.64237140979E+02  0.47649893542E+01 -0.82234769712E+02  0.10456463434E+03  0.47000000000E+01 0. -1.
         -5    1    4    4    0  503  0.15920230616E+02 -0.28828231465E+02  0.15394695849E+02  0.36655249727E+02  0.47000000000E+01 0.  1.
<mgrwt>
<rscale>  0 0.12386684E+03</rscale>
<asrwt>0</asrwt>
<pdfrwt beam="1">  1        1 0.23589026E-01 0.12440040E+03</pdfrwt>
<pdfrwt beam="2">  1       -1 0.17386959E-01 0.12440040E+03</pdfrwt>
<totfact> 0.49638559E+03</totfact>
</mgrwt>
</event>
<event>
 8    1  0.6836165E-004  0.9576818E+02  0.7546771E-02  0.1289888E+00
          1   -1    0    0  501    0  0.00000000000E+00  0.00000000000E+00  0.51741792186E+03  0.51741792186E+03  0.00000000000E+00 0. -1.
         -1   -1    0    0    0  501 -0.00000000000E+00 -0.00000000000E+00 -0.17588936057E+02  0.17588936057E+02  0.00000000000E+00 0.  1.
         23    2    1    2    0    0 -0.26579786824E+02  0.44217586664E+01  0.24392292517E+03  0.26176803142E+03  0.91093752962E+02 0.  0.
         23    2    1    2    0    0  0.26579786824E+02 -0.44217586664E+01  0.25590606063E+03  0.27323882650E+03  0.91899441911E+02 0.  0.
          5    1    3    3  502    0 -0.42564387426E+01 -0.24492766679E+02  0.14002968314E+02  0.28916881090E+02  0.47000000000E+01 0. -1.
         -5    1    3    3    0  502 -0.22323348082E+02  0.28914525346E+02  0.22991995686E+03  0.23285115033E+03  0.47000000000E+01 0.  1.
          5    1    4    4  503    0 -0.13528992016E+02 -0.31065572193E+02  0.18002614262E+03  0.18324738859E+03  0.47000000000E+01 0. -1.
         -5    1    4    4    0  503  0.40108778840E+02  0.26643813527E+02  0.75879918016E+02  0.89991437911E+02  0.47000000000E+01 0.  1.
<mgrwt>
<rscale>  0 0.95574375E+02</rscale>
<asrwt>0</asrwt>
<pdfrwt beam="1">  1        1 0.79602746E-01 0.95768181E+02</pdfrwt>
<pdfrwt beam="2">  1       -1 0.27059906E-02 0.95768181E+02</pdfrwt>
<totfact> 0.17324365E+04</totfact>
</mgrwt>
</event>
<event>
 8    1  0.6836165E-004  0.1066056E+03  0.7546771E-02  0.1267559E+00
         -1   -1    0    0    0  501 -0.00000000000E+00  0.00000000000E+00  0.14972956498E+03  0.14972956498E+03  0.00000000000E+00 0.  1.
          1   -1    0    0  501    0  0.00000000000E+00 -0.00000000000E+00 -0.81307045783E+02  0.81307045783E+02  0.00000000000E+00 0. -1.
         23    2    1    2    0    0 -0.51883479945E+02 -0.10855616572E+02  0.20366138327E+01  0.10545064335E+03  0.91136987468E+02 0.  0.
         23    2    1    2    0    0  0.51883479945E+02  0.10855616572E+02  0.66385905360E+02  0.12558596741E+03  0.92493280172E+02 0.  0.
          5    1    3    3  502    0  0.85588213592E+01  0.28486650754E+02 -0.10909183966E+02  0.32028783759E+02  0.47000000000E+01 0. -1.
         -5    1    3    3    0  502 -0.60442301304E+02 -0.39342267326E+02  0.12945797799E+02  0.73421859592E+02  0.47000000000E+01 0.  1.
          5    1    4    4  503    0  0.65843189084E+02 -0.13620561841E+02  0.69542302947E+02  0.96845584065E+02  0.47000000000E+01 0. -1.
         -5    1    4    4    0  503 -0.13959709140E+02  0.24476178413E+02 -0.31563975875E+01  0.28740383343E+02  0.47000000000E+01 0.  1.
<mgrwt>
<rscale>  0 0.10631070E+03</rscale>
<asrwt>0</asrwt>
<pdfrwt beam="1">  1        1 0.12508776E-01 0.10660557E+03</pdfrwt>
<pdfrwt beam="2">  1       -1 0.23035318E-01 0.10660557E+03</pdfrwt>
<totfact> 0.70389430E+03</totfact>
</mgrwt>
</event>
<event>
 8    1  0.6836165E-004  0.1401749E+03  0.7546771E-02  0.1213344E+00
          2   -1    0    0  501    0  0.00000000000E+00  0.00000000000E+00  0.38375456989E+03  0.38375456989E+03  0.00000000000E+00 0. -1.
         -2   -1    0    0    0  501 -0.00000000000E+00 -0.00000000000E+00 -0.62223647912E+02  0.62223647912E+02  0.00000000000E+00 0.  1.
         23    2    1    2    0    0 -0.10588102863E+03  0.70866849497E+01  0.25541073157E+03  0.29099146471E+03  0.90445438837E+02 0.  0.
         23    2    1    2    0    0  0.10588102863E+03 -0.70866849497E+01  0.66120190417E+02  0.15498675310E+03  0.91586029105E+02 0.  0.
          5    1    4    4  502    0  0.52268174994E+02  0.42038693694E+02  0.29350545858E+02  0.73367284445E+02  0.47000000000E+01 0. -1.
         -5    1    3    3    0  503 -0.55959540030E+02 -0.10683324623E+01  0.38216621098E+02  0.67935348551E+02  0.47000000000E+01 0.  1.
          5    1    3    3  503    0 -0.49921488603E+02  0.81550174120E+01  0.21719411047E+03  0.22305611616E+03  0.47000000000E+01 0. -1.
         -5    1    4    4    0  502  0.53612853639E+02 -0.49125378644E+02  0.36769644559E+02  0.81619468653E+02  0.47000000000E+01 0.  1.
<mgrwt>
<rscale>  0 0.13998893E+03</rscale>
<asrwt>0</asrwt>
<pdfrwt beam="1">  1        2 0.59039164E-01 0.14017494E+03</pdfrwt>
<pdfrwt beam="2">  1       -2 0.95728691E-02 0.14017494E+03</pdfrwt>
<totfact> 0.57104706E+03</totfact>
</mgrwt>
</event>
<event>
 8    1  0.6836165E-004  0.1951190E+03  0.7546771E-02  0.1154004E+00
         -1   -1    0    0    0  501 -0.00000000000E+00  0.00000000000E+00  0.50876259382E+02  0.50876259382E+02  0.00000000000E+00 0.  1.
          1   -1    0    0  501    0  0.00000000000E+00 -0.00000000000E+00 -0.95778454590E+03  0.95778454590E+03  0.00000000000E+00 0. -1.
         23    2    1    2    0    0 -0.98082036980E+02 -0.14143585539E+03 -0.69043378790E+03  0.71747489669E+03  0.91908784926E+02 0.  0.
         23    2    1    2    0    0  0.98082036980E+02  0.14143585539E+03 -0.21647449862E+03  0.29118590859E+03  0.91125395150E+02 0.  0.
          5    1    3    3  502    0 -0.81600028686E+02 -0.11713720464E+03 -0.65861262402E+03  0.67392311722E+03  0.47000000000E+01 0. -1.
         -5    1    4    4    0  503  0.65557986091E+02  0.72967141098E+02 -0.18404258076E+03  0.20860444567E+03  0.47000000000E+01 0.  1.
          5    1    4    4  503    0  0.32524050890E+02  0.68468714287E+02 -0.32431917867E+02  0.82581462925E+02  0.47000000000E+01 0. -1.
         -5    1    3    3    0  502 -0.16482008294E+02 -0.24298650743E+02 -0.31821163870E+02  0.43551779474E+02  0.47000000000E+01 0.  1.
<mgrwt>
<rscale>  0 0.19502696E+03</rscale>
<asrwt>0</asrwt>
<pdfrwt beam="1">  1        1 0.14735147E+00 0.19511897E+03</pdfrwt>
<pdfrwt beam="2">  1       -1 0.78271170E-02 0.19511897E+03</pdfrwt>
<totfact> 0.15316742E+03</totfact>
</mgrwt>
</event>
<event>
 8    1  0.6836165E-004  0.1001030E+03  0.7546771E-02  0.1280195E+00
          4   -1    0    0  501    0  0.00000000000E+00  0.00000000000E+00  0.21797084094E+03  0.21797084094E+03  0.00000000000E+00 0. -1.
         -4   -1    0    0    0  501 -0.00000000000E+00 -0.00000000000E+00 -0.45967086523E+02  0.45967086523E+02  0.00000000000E+00 0.  1.
         23    2    1    2    0    0  0.19124643014E+02  0.33838442855E+02  0.79875506426E+02  0.12789297931E+03  0.92009376944E+02 0.  0.
         23    2    1    2    0    0 -0.19124643014E+02 -0.33838442855E+02  0.92128247986E+02  0.13604494815E+03  0.92248694591E+02 0.  0.
          5    1    4    4  502    0 -0.25526277237E+02  0.27741060657E+02  0.33548889468E+02  0.50683086533E+02  0.47000000000E+01 0. -1.
         -5    1    3    3    0  503  0.45592098285E+02  0.42807529786E+01  0.95540688713E+01  0.47014194709E+02  0.47000000000E+01 0.  1.
          5    1    3    3  503    0 -0.26467455271E+02  0.29557689876E+02  0.70321437555E+02  0.80878784605E+02  0.47000000000E+01 0. -1.
         -5    1    4    4    0  502  0.64016342238E+01 -0.61579503512E+02  0.58579358518E+02  0.85361861612E+02  0.47000000000E+01 0.  1.
<mgrwt>
<rscale>  0 0.10004785E+03</rscale>
<asrwt>0</asrwt>
<pdfrwt beam="1">  1        4 0.33533975E-01 0.10010302E+03</pdfrwt>
<pdfrwt beam="2">  1       -4 0.70718596E-02 0.10010302E+03</pdfrwt>
<totfact> 0.17805313E+03</totfact>
</mgrwt>
</event>
<event>
 7    1  0.6836165E-004  0.1517878E+03  0.7546771E-02  0.1209531E+00
          2   -1    0    0  501    0  0.00000000000E+00  0.00000000000E+00  0.16473507372E+03  0.16473507372E+03  0.00000000000E+00 0. -1.
         -2   -1    0    0    0  501 -0.00000000000E+00 -0.00000000000E+00 -0.19783523947E+03  0.19783523947E+03  0.00000000000E+00 0.  1.
         23    2    1    2    0    0 -0.61434677220E+02  0.49095247208E+02  0.10393158616E+03  0.15807769932E+03  0.89455137114E+02 0.  0.
          5    1    1    2  502    0  0.10399636251E+02  0.18084162677E+02  0.17985534095E+02  0.27942061673E+02  0.47000000000E+01 0. -1.
         -5    1    3    3    0  503 -0.30606808963E+01  0.58988571295E+02  0.44958614149E+02  0.74380012753E+02  0.47000000000E+01 0.  1.
          5    1    3    3  503    0 -0.58373996323E+02 -0.98933240870E+01  0.58972972014E+02  0.83697686565E+02  0.47000000000E+01 0. -1.
         -5    1    1    2    0  502  0.51035040968E+02 -0.67179409885E+02 -0.15501728601E+03  0.17655055220E+03  0.47000000000E+01 0.  1.
<mgrwt>
<rscale>  0 0.14286080E+03</rscale>
<asrwt>0</asrwt>
<pdfrwt beam="1">  1        2 0.25343857E-01 0.15178777E+03</pdfrwt>
<pdfrwt beam="2">  1       -2 0.30436191E-01 0.15178777E+03</pdfrwt>
<totfact> 0.20602259E+03</totfact>
</mgrwt>
</event>
<event>
 8    1  0.6836165E-004  0.1169419E+03  0.7546771E-02  0.1255460E+00
         -4   -1    0    0    0  501 -0.00000000000E+00  0.00000000000E+00  0.77878595812E+02  0.77878595812E+02  0.00000000000E+00 0.  1.
          4   -1    0    0  501    0  0.00000000000E+00 -0.00000000000E+00 -0.21182656851E+03  0.21182656851E+03  0.00000000000E+00 0. -1.
         23    2    1    2    0    0  0.11891919035E+02 -0.38662750815E+02 -0.14674669391E+03  0.18764324830E+03  0.10972315352E+03 0.  0.
         23    2    1    2    0    0 -0.11891919035E+02  0.38662750815E+02  0.12798721212E+02  0.10206191603E+03  0.92825650547E+02 0.  0.
          5    1    3    3  502    0  0.47184838389E+02 -0.48977845398E+02 -0.13037075574E+03  0.14711853135E+03  0.47000000000E+01 0. -1.
         -5    1    4    4    0  503 -0.42567431013E+02  0.39817925683E+02  0.30876996448E+02  0.66128150574E+02  0.47000000000E+01 0.  1.
          5    1    4    4  503    0  0.30675511978E+02 -0.11551748678E+01 -0.18078275236E+02  0.35933765452E+02  0.47000000000E+01 0. -1.
         -5    1    3    3    0  502 -0.35292919355E+02  0.10315094583E+02 -0.16375938170E+02  0.40524716949E+02  0.47000000000E+01 0.  1.
<mgrwt>
<rscale>  0 0.11280619E+03</rscale>
<asrwt>0</asrwt>
<pdfrwt beam="1">  1        4 0.32588703E-01 0.11694185E+03</pdfrwt>
<pdfrwt beam="2">  1       -4 0.11981322E-01 0.11694185E+03</pdfrwt>
<totfact> 0.80985003E+02</totfact>
</mgrwt>
</event>
<event>
 8    1  0.6836165E-004  0.1061342E+03  0.7546771E-02  0.1276790E+00
         -1   -1    0    0    0  501 -0.00000000000E+00  0.00000000000E+00  0.42521488600E+03  0.42521488600E+03  0.00000000000E+00 0.  1.
          1   -1    0    0  501    0  0.00000000000E+00 -0.00000000000E+00 -0.22655212108E+02  0.22655212108E+02  0.00000000000E+00 0. -1.
         23    2    1    2    0    0 -0.99193166670E+01 -0.33642863056E+00  0.19903370706E+03  0.22556350322E+03  0.10566916018E+03 0.  0.
         23    2    1    2    0    0  0.99193166670E+01  0.33642863056E+00  0.20352596684E+03  0.22230659489E+03  0.88875738684E+02 0.  0.
          5    1    3    3  502    0 -0.10234614562E+02 -0.52495852361E+02  0.96593151399E+02  0.11051193939E+03  0.47000000000E+01 0. -1.
         -5    1    3    3    0  502  0.31529789479E+00  0.52159423730E+02  0.10244055566E+03  0.11505156383E+03  0.47000000000E+01 0.  1.
          5    1    4    4  503    0  0.25333367027E+02  0.15124513284E+02  0.16744781406E+02  0.34249205704E+02  0.47000000000E+01 0. -1.
         -5    1    4    4    0  503 -0.15414050360E+02 -0.14788084653E+02  0.18678118543E+03  0.18805738918E+03  0.47000000000E+01 0.  1.
<mgrwt>
<rscale>  0 0.10168579E+03</rscale>
<asrwt>0</asrwt>
<pdfrwt beam="1">  1        1 0.34854176E-02 0.10613424E+03</pdfrwt>
<pdfrwt beam="2">  1       -1 0.65417669E-01 0.10613424E+03</pdfrwt>
<totfact> 0.63049940E+03</totfact>
</mgrwt>
</event>
<event>
 8    1  0.6836165E-004  0.9289930E+02  0.7546771E-02  0.1296625E+00
         -1   -1    0    0    0  501 -0.00000000000E+00  0.00000000000E+00  0.41653616035E+03  0.41653616035E+03  0.00000000000E+00 0.  1.
          1   -1    0    0  501    0  0.00000000000E+00 -0.00000000000E+00 -0.29860234176E+02  0.29860234176E+02  0.00000000000E+00 0. -1.
         23    2    1    2    0    0  0.32799694099E+01  0.87304427268E+01  0.67401336237E+02  0.11388091609E+03  0.91317819151E+02 0.  0.
         23    2    1    2    0    0 -0.32799694099E+01 -0.87304427268E+01  0.31927458994E+03  0.33251547843E+03  0.92429977754E+02 0.  0.
          5    1    4    4  502    0 -0.33715449238E+02 -0.34458296398E+02  0.12326743780E+03  0.13244265525E+03  0.47000000000E+01 0. -1.
         -5    1    3    3    0  503  0.38332015385E+02 -0.97238619362E+01  0.61911307751E+02  0.73613836484E+02  0.47000000000E+01 0.  1.
          5    1    3    3  503    0 -0.35052045975E+02  0.18454304663E+02  0.54900284860E+01  0.40267079611E+02  0.47000000000E+01 0. -1.
         -5    1    4    4    0  502  0.30435479829E+02  0.25727853671E+02  0.19600715213E+03  0.20007282318E+03  0.47000000000E+01 0.  1.
<mgrwt>
<rscale>  0 0.92621436E+02</rscale>
<asrwt>0</asrwt>
<pdfrwt beam="1">  1        1 0.45938825E-02 0.92899298E+02</pdfrwt>
<pdfrwt beam="2">  1       -1 0.64082482E-01 0.92899298E+02</pdfrwt>
<totfact> 0.44536301E+03</totfact>
</mgrwt>
</event>
<event>
 8    1  0.6836165E-004  0.1096982E+03  0.7546771E-02  0.1263817E+00
         -2   -1    0    0    0  501 -0.00000000000E+00  0.00000000000E+00  0.46558540552E+02  0.46558540552E+02  0.00000000000E+00 0.  1.
          2   -1    0    0  501    0  0.00000000000E+00 -0.00000000000E+00 -0.55657543154E+03  0.55657543154E+03  0.00000000000E+00 0. -1.
         23    2    1    2    0    0 -0.16063562859E+02 -0.51506444518E+02 -0.32506668264E+02  0.11441315912E+03  0.95513012826E+02 0.  0.
         23    2    1    2    0    0  0.16063562859E+02  0.51506444518E+02 -0.47751022272E+03  0.48872081297E+03  0.89000383985E+02 0.  0.
          5    1    3    3  502    0  0.21809502735E+02 -0.52604486553E+02 -0.46582397090E+02  0.73721748037E+02  0.47000000000E+01 0. -1.
         -5    1    3    3    0  502 -0.37873065594E+02  0.10980420343E+01  0.14075728826E+02  0.40691411081E+02  0.47000000000E+01 0.  1.
          5    1    4    4  503    0  0.19709980476E+02  0.73961513138E+02 -0.41517287363E+03  0.42219591868E+03  0.47000000000E+01 0. -1.
         -5    1    4    4    0  503 -0.36464176167E+01 -0.22455068619E+02 -0.62337349095E+02  0.66524894290E+02  0.47000000000E+01 0.  1.
<mgrwt>
<rscale>  0 0.10826503E+03</rscale>
<asrwt>0</asrwt>
<pdfrwt beam="1">  1        2 0.85626989E-01 0.10969817E+03</pdfrwt>
<pdfrwt beam="2">  1       -2 0.71628524E-02 0.10969817E+03</pdfrwt>
<totfact> 0.58893101E+03</totfact>
</mgrwt>
</event>
<event>
 8    1  0.6836165E-004  0.1393835E+03  0.7546771E-02  0.1216178E+00
         -3   -1    0    0    0  501 -0.00000000000E+00  0.00000000000E+00  0.57777575171E+02  0.57777575171E+02  0.00000000000E+00 0.  1.
          3   -1    0    0  501    0  0.00000000000E+00 -0.00000000000E+00 -0.40010880944E+03  0.40010880944E+03  0.00000000000E+00 0. -1.
         23    2    1    2    0    0 -0.36712735256E+02  0.10055155095E+03 -0.27502173807E+03  0.30832568007E+03  0.89271099757E+02 0.  0.
         23    2    1    2    0    0  0.36712735256E+02 -0.10055155095E+03 -0.67309496193E+02  0.14956070454E+03  0.79871125788E+02 0.  0.
          5    1    3    3  502    0  0.25200393462E+02  0.39230796198E+02 -0.13927501606E+03  0.14694807008E+03  0.47000000000E+01 0. -1.
         -5    1    4    4    0  503 -0.23906556673E+02 -0.31643769690E+02 -0.31765360320E+02  0.51029204662E+02  0.47000000000E+01 0.  1.
          5    1    4    4  503    0  0.60619291929E+02 -0.68907781260E+02 -0.35544135873E+02  0.98531499873E+02  0.47000000000E+01 0. -1.
         -5    1    3    3    0  502 -0.61913128717E+02  0.61320754752E+02 -0.13574672201E+03  0.16137761000E+03  0.47000000000E+01 0.  1.
<mgrwt>
<rscale>  0 0.13790384E+03</rscale>
<asrwt>0</asrwt>
<pdfrwt beam="1">  1        3 0.61555199E-01 0.13938353E+03</pdfrwt>
<pdfrwt beam="2">  1       -3 0.88888581E-02 0.13938353E+03</pdfrwt>
<totfact> 0.54512715E+02</totfact>
</mgrwt>
</event>
<event>
 8    1  0.6836165E-004  0.1695486E+03  0.7546771E-02  0.1178397E+00
          2   -1    0    0  501    0  0.00000000000E+00  0.00000000000E+00  0.85001933274E+03  0.85001933274E+03  0.00000000000E+00 0. -1.
         -2   -1    0    0    0  501 -0.00000000000E+00 -0.00000000000E+00 -0.54572222592E+02  0.54572222592E+02  0.00000000000E+00 0.  1.
         23    2    1    2    0    0 -0.11623710298E+03  0.83510046303E+02  0.67725442563E+03  0.69815491821E+03  0.90894118860E+02 0.  0.
         23    2    1    2    0    0  0.11623710298E+03 -0.83510046303E+02  0.11819268452E+03  0.20643663712E+03  0.90341477347E+02 0.  0.
          5    1    3    3  502    0 -0.56583995681E+02  0.48871019866E+02  0.16444204901E+03  0.18070252525E+03  0.47000000000E+01 0.  1.
         -5    1    3    3    0  502 -0.59653107300E+02  0.34639026437E+02  0.51281237663E+03  0.51745239297E+03  0.47000000000E+01 0. -1.
          5    1    4    4  503    0  0.12567985052E+03 -0.54220484904E+02  0.86359445793E+02  0.16191148720E+03  0.47000000000E+01 0.  1.
         -5    1    4    4    0  503 -0.94427475347E+01 -0.29289561399E+02  0.31833238725E+02  0.44525149923E+02  0.47000000000E+01 0. -1.
<mgrwt>
<rscale>  0 0.16947466E+03</rscale>
<asrwt>0</asrwt>
<pdfrwt beam="1">  1        2 0.13077220E+00 0.16954861E+03</pdfrwt>
<pdfrwt beam="2">  1       -2 0.83957272E-02 0.16954861E+03</pdfrwt>
<totfact> 0.28399872E+03</totfact>
</mgrwt>
</event>
<event>
 8    1  0.6836165E-004  0.2650776E+03  0.7546771E-02  0.1104219E+00
          1   -1    0    0  501    0  0.00000000000E+00  0.00000000000E+00  0.94260872893E+02  0.94260872893E+02  0.00000000000E+00 0. -1.
         -1   -1    0    0    0  501 -0.00000000000E+00 -0.00000000000E+00 -0.74935721206E+03  0.74935721206E+03  0.00000000000E+00 0.  1.
         23    2    1    2    0    0  0.24358713952E+03 -0.50601547291E+02 -0.36440657982E+03  0.45061987988E+03  0.91492675110E+02 0.  0.
         23    2    1    2    0    0 -0.24358713952E+03  0.50601547291E+02 -0.29068975934E+03  0.39299820507E+03  0.89732056010E+02 0.  0.
          5    1    3    3  502    0  0.16280816317E+03 -0.55513187051E+02 -0.17915740819E+03  0.24841030341E+03  0.47000000000E+01 0. -1.
         -5    1    3    3    0  502  0.80778976343E+02  0.49116397598E+01 -0.18524917163E+03  0.20220957647E+03  0.47000000000E+01 0.  1.
          5    1    4    4  503    0 -0.74958546814E+02 -0.20833513952E+02 -0.11678024092E+03  0.14040133088E+03  0.47000000000E+01 0. -1.
         -5    1    4    4    0  503 -0.16862859270E+03  0.71435061244E+02 -0.17390951842E+03  0.25259687419E+03  0.47000000000E+01 0.  1.
<mgrwt>
<rscale>  0 0.26492682E+03</rscale>
<asrwt>0</asrwt>
<pdfrwt beam="1">  1        1 0.14501673E-01 0.26507757E+03</pdfrwt>
<pdfrwt beam="2">  1       -1 0.11528573E+00 0.26507757E+03</pdfrwt>
<totfact> 0.28424900E+02</totfact>
</mgrwt>
</event>
<event>
 8    1  0.6836165E-004  0.1221057E+03  0.7546771E-02  0.1239869E+00
         -1   -1    0    0    0  501 -0.00000000000E+00  0.00000000000E+00  0.86694637529E+02  0.86694637529E+02  0.00000000000E+00 0.  1.
          1   -1    0    0  501    0  0.00000000000E+00 -0.00000000000E+00 -0.53472836020E+03  0.53472836020E+03  0.00000000000E+00 0. -1.
         23    2    1    2    0    0  0.52809010666E+02 -0.60560044194E+02  0.31999284499E+02  0.12622901698E+03  0.91942916855E+02 0.  0.
         23    2    1    2    0    0 -0.52809010666E+02  0.60560044194E+02 -0.48003300717E+03  0.49519398075E+03  0.91263793666E+02 0.  0.
          5    1    3    3  502    0  0.64863344019E+02 -0.55628645345E+01  0.21814789627E+02  0.68819865632E+02  0.47000000000E+01 0. -1.
         -5    1    4    4    0  503 -0.42093767446E+02  0.84738267600E+02 -0.37456463439E+03  0.38635891939E+03  0.47000000000E+01 0.  1.
          5    1    4    4  503    0 -0.10715243220E+02 -0.24178223406E+02 -0.10546837277E+03  0.10883506135E+03  0.47000000000E+01 0. -1.
         -5    1    3    3    0  502 -0.12054333353E+02 -0.54997179660E+02  0.10184494872E+02  0.57409151351E+02  0.47000000000E+01 0.  1.
<mgrwt>
<rscale>  0 0.12197790E+03</rscale>
<asrwt>0</asrwt>
<pdfrwt beam="1">  1        1 0.82265902E-01 0.12210574E+03</pdfrwt>
<pdfrwt beam="2">  1       -1 0.13337636E-01 0.12210574E+03</pdfrwt>
<totfact> 0.15754463E+03</totfact>
</mgrwt>
</event>
<event>
 8    1  0.6836165E-004  0.9347047E+02  0.7546771E-02  0.1297250E+00
         -2   -1    0    0    0  501 -0.00000000000E+00  0.00000000000E+00  0.14499906318E+02  0.14499906318E+02  0.00000000000E+00 0.  1.
          2   -1    0    0  501    0  0.00000000000E+00 -0.00000000000E+00 -0.58692427960E+03  0.58692427960E+03  0.00000000000E+00 0. -1.
         23    2    1    2    0    0 -0.99564658995E+01  0.53571405848E+01 -0.24935474318E+03  0.26629779557E+03  0.92784146329E+02 0.  0.
         23    2    1    2    0    0  0.99564658995E+01 -0.53571405848E+01 -0.32306963010E+03  0.33512639035E+03  0.88362217296E+02 0.  0.
          5    1    4    4  502    0 -0.22061219749E+02 -0.77682114434E+01 -0.22444654606E+02  0.32755076648E+02  0.47000000000E+01 0. -1.
         -5    1    3    3    0  503 -0.23766218263E+02  0.40880631822E+02 -0.83687748430E+02  0.96238185903E+02  0.47000000000E+01 0.  1.
          5    1    3    3  503    0  0.13809752363E+02 -0.35523491237E+02 -0.16566699475E+03  0.17005960967E+03  0.47000000000E+01 0. -1.
         -5    1    4    4    0  502  0.32017685649E+02  0.24110708586E+01 -0.30062497549E+03  0.30237131370E+03  0.47000000000E+01 0.  1.
<mgrwt>
<rscale>  0 0.92353645E+02</rscale>
<asrwt>0</asrwt>
<pdfrwt beam="1">  1        2 0.90296054E-01 0.93470466E+02</pdfrwt>
<pdfrwt beam="2">  1       -2 0.22307546E-02 0.93470466E+02</pdfrwt>
<totfact> 0.30699988E+04</totfact>
</mgrwt>
</event>
<event>
 8    1  0.6836165E-004  0.1072651E+03  0.7546771E-02  0.1266656E+00
         -1   -1    0    0    0  501 -0.00000000000E+00  0.00000000000E+00  0.36651830669E+03  0.36651830669E+03  0.00000000000E+00 0.  1.
          1   -1    0    0  501    0  0.00000000000E+00 -0.00000000000E+00 -0.39024034544E+02  0.39024034544E+02  0.00000000000E+00 0. -1.
         23    2    1    2    0    0 -0.40901053007E+02 -0.36203225922E+02  0.25549249042E+03  0.27635236636E+03  0.90059136273E+02 0.  0.
         23    2    1    2    0    0  0.40901053007E+02  0.36203225922E+02  0.72001781725E+02  0.12918997488E+03  0.92315888841E+02 0.  0.
          5    1    3    3  502    0 -0.35258577738E+02  0.24245855757E+02  0.84355109629E+02  0.94704294232E+02  0.47000000000E+01 0. -1.
         -5    1    4    4    0  503  0.19060001432E+02  0.13634690092E+02  0.89703561730E+02  0.92833223662E+02  0.47000000000E+01 0.  1.
          5    1    4    4  503    0  0.21841051575E+02  0.22568535830E+02 -0.17701780005E+02  0.36356751213E+02  0.47000000000E+01 0. -1.
         -5    1    3    3    0  502 -0.56424752684E+01 -0.60449081678E+02  0.17113738079E+03  0.18164807212E+03  0.47000000000E+01 0.  1.
<mgrwt>
<rscale>  0 0.10677776E+03</rscale>
<asrwt>0</asrwt>
<pdfrwt beam="1">  1        1 0.60036979E-02 0.10726506E+03</pdfrwt>
<pdfrwt beam="2">  1       -1 0.56387430E-01 0.10726506E+03</pdfrwt>
<totfact> 0.39891629E+03</totfact>
</mgrwt>
</event>
<event>
 8    1  0.6836165E-004  0.9443401E+02  0.7546771E-02  0.1293369E+00
          1   -1    0    0  501    0  0.00000000000E+00  0.00000000000E+00  0.32229126736E+03  0.32229126736E+03  0.00000000000E+00 0. -1.
         -1   -1    0    0    0  501 -0.00000000000E+00 -0.00000000000E+00 -0.29071469922E+02  0.29071469922E+02  0.00000000000E+00 0.  1.
         23    2    1    2    0    0  0.76605108433E+01 -0.22601179118E+02  0.10326110632E+03  0.13993083593E+03  0.91368955562E+02 0.  0.
         23    2    1    2    0    0 -0.76605108433E+01  0.22601179118E+02  0.18995869112E+03  0.21143190135E+03  0.89719829781E+02 0.  0.
          5    1    4    4  502    0 -0.27476038296E+02 -0.20913280553E+00  0.11143112512E+02  0.30020582497E+02  0.47000000000E+01 0. -1.
         -5    1    4    4    0  502  0.19815527453E+02  0.22810311924E+02  0.17881557860E+03  0.18141131886E+03  0.47000000000E+01 0.  1.
          5    1    3    3  503    0 -0.17674195166E+02 -0.16779464077E+02  0.10992061021E+03  0.11268787929E+03  0.47000000000E+01 0. -1.
         -5    1    3    3    0  503  0.25334706009E+02 -0.58217150412E+01 -0.66595038852E+01  0.27242956642E+02  0.47000000000E+01 0.  1.
<mgrwt>
<rscale>  0 0.94032797E+02</rscale>
<asrwt>0</asrwt>
<pdfrwt beam="1">  1        1 0.49583269E-01 0.94434013E+02</pdfrwt>
<pdfrwt beam="2">  1       -1 0.44725341E-02 0.94434013E+02</pdfrwt>
<totfact> 0.15117503E+04</totfact>
</mgrwt>
</event>
<event>
 8    1  0.6836165E-004  0.1024012E+03  0.7546771E-02  0.1276092E+00
         -2   -1    0    0    0  501 -0.00000000000E+00  0.00000000000E+00  0.65906851872E+03  0.65906851872E+03  0.00000000000E+00 0.  1.
          2   -1    0    0  501    0  0.00000000000E+00 -0.00000000000E+00 -0.36823674094E+02  0.36823674094E+02  0.00000000000E+00 0. -1.
         23    2    1    2    0    0  0.30617536156E+02 -0.39386269670E+02  0.57575268460E+03  0.58478813070E+03  0.89427580903E+02 0.  0.
         23    2    1    2    0    0 -0.30617536156E+02  0.39386269670E+02  0.46492160026E+02  0.11110406211E+03  0.87714764522E+02 0.  0.
          5    1    3    3  502    0 -0.68372387328E+00  0.22115343874E+02  0.55117967798E+02  0.59578824150E+02  0.47000000000E+01 0. -1.
         -5    1    3    3    0  502  0.31301260029E+02 -0.61501613543E+02  0.52063471680E+03  0.52520930655E+03  0.47000000000E+01 0.  1.
          5    1    4    4  503    0 -0.13746280666E+02 -0.24802146674E+02 -0.19392203315E+01  0.28808979282E+02  0.47000000000E+01 0. -1.
         -5    1    4    4    0  503 -0.16871255490E+02  0.64188416344E+02  0.48431380357E+02  0.82295082829E+02  0.47000000000E+01 0.  1.
<mgrwt>
<rscale>  0 0.10202604E+03</rscale>
<asrwt>0</asrwt>
<pdfrwt beam="1">  1        2 0.56651811E-02 0.10240119E+03</pdfrwt>
<pdfrwt beam="2">  1       -2 0.10139515E+00 0.10240119E+03</pdfrwt>
<totfact> 0.10578287E+03</totfact>
</mgrwt>
</event>
<event>
 8    1  0.6836165E-004  0.9735266E+02  0.7546771E-02  0.1286704E+00
          1   -1    0    0  501    0  0.00000000000E+00  0.00000000000E+00  0.34953134478E+03  0.34953134478E+03  0.00000000000E+00 0. -1.
         -1   -1    0    0    0  501 -0.00000000000E+00 -0.00000000000E+00 -0.26772426445E+02  0.26772426445E+02  0.00000000000E+00 0.  1.
         23    2    1    2    0    0 -0.20200303136E+02 -0.25629316090E+02  0.15602684678E+03  0.18390736287E+03  0.91720374560E+02 0.  0.
         23    2    1    2    0    0  0.20200303136E+02  0.25629316090E+02  0.16673207156E+03  0.19239640836E+03  0.90287763156E+02 0.  0.
          5    1    3    3  502    0  0.19481053942E+02  0.16394833718E+02  0.99913625652E+02  0.10321397496E+03  0.47000000000E+01 0. -1.
         -5    1    4    4    0  503 -0.30790229341E+02 -0.72452557200E+01  0.35725666973E+02  0.47947317276E+02  0.47000000000E+01 0.  1.
          5    1    4    4  503    0  0.50990532477E+02  0.32874571810E+02  0.13100640458E+03  0.14444909109E+03  0.47000000000E+01 0. -1.
         -5    1    3    3    0  502 -0.39681357078E+02 -0.42024149808E+02  0.56113221129E+02  0.80693387909E+02  0.47000000000E+01 0.  1.
<mgrwt>
<rscale>  0 0.97013767E+02</rscale>
<asrwt>0</asrwt>
<pdfrwt beam="1">  1        1 0.53774050E-01 0.97352664E+02</pdfrwt>
<pdfrwt beam="2">  1       -1 0.41188351E-02 0.97352664E+02</pdfrwt>
<totfact> 0.15473225E+04</totfact>
</mgrwt>
</event>
<event>
 8    1  0.6836165E-004  0.1034997E+03  0.7546771E-02  0.1277430E+00
         -2   -1    0    0    0  501 -0.00000000000E+00  0.00000000000E+00  0.33655363700E+02  0.33655363700E+02  0.00000000000E+00 0.  1.
          2   -1    0    0  501    0  0.00000000000E+00 -0.00000000000E+00 -0.40733605199E+03  0.40733605199E+03  0.00000000000E+00 0. -1.
         23    2    1    2    0    0 -0.24409423331E+02 -0.36669000038E+02 -0.75906287686E+02  0.12835089709E+03  0.93657635906E+02 0.  0.
         23    2    1    2    0    0  0.24409423331E+02  0.36669000038E+02 -0.29777440060E+03  0.31264051859E+03  0.84463392672E+02 0.  0.
          5    1    4    4  502    0  0.46536678093E+02  0.48943103997E+02 -0.18588127569E+03  0.19782575284E+03  0.47000000000E+01 0. -1.
         -5    1    3    3    0  503  0.20002047174E+01 -0.64198461351E+02 -0.40403426776E+02  0.76026114948E+02  0.47000000000E+01 0.  1.
          5    1    3    3  503    0 -0.26409628049E+02  0.27529461313E+02 -0.35502860911E+02  0.52324782147E+02  0.47000000000E+01 0. -1.
         -5    1    4    4    0  502 -0.22127254762E+02 -0.12274103959E+02 -0.11189312491E+03  0.11481476575E+03  0.47000000000E+01 0.  1.
<mgrwt>
<rscale>  0 0.10137530E+03</rscale>
<asrwt>0</asrwt>
<pdfrwt beam="1">  1        2 0.62667087E-01 0.10349970E+03</pdfrwt>
<pdfrwt beam="2">  1       -2 0.51777481E-02 0.10349970E+03</pdfrwt>
<totfact> 0.13409213E+04</totfact>
</mgrwt>
</event>
<event>
 8    1  0.6836165E-004  0.8909493E+02  0.7546771E-02  0.1310023E+00
         -4   -1    0    0    0  501 -0.00000000000E+00  0.00000000000E+00  0.53092835830E+03  0.53092835830E+03  0.00000000000E+00 0.  1.
          4   -1    0    0  501    0  0.00000000000E+00 -0.00000000000E+00 -0.18475391426E+02  0.18475391426E+02  0.00000000000E+00 0. -1.
         23    2    1    2    0    0 -0.58797847182E+01  0.74920507830E+01  0.10789080914E+03  0.13514725259E+03  0.80830999571E+02 0.  0.
         23    2    1    2    0    0  0.58797847182E+01 -0.74920507830E+01  0.40456215773E+03  0.41425649714E+03  0.88584441400E+02 0.  0.
          5    1    3    3  502    0  0.76066677566E+01 -0.24819526419E+02  0.93243945513E+02  0.96904043574E+02  0.47000000000E+01 0. -1.
         -5    1    4    4    0  503 -0.15829527854E+02  0.29991570007E+02  0.83423845808E+02  0.90175918476E+02  0.47000000000E+01 0.  1.
          5    1    4    4  503    0  0.21709312573E+02 -0.37483620790E+02  0.32113831193E+03  0.32408057866E+03  0.47000000000E+01 0. -1.
         -5    1    3    3    0  502 -0.13486452475E+02  0.32311577202E+02  0.14646863628E+02  0.38243209015E+02  0.47000000000E+01 0.  1.
<mgrwt>
<rscale>  0 0.87102910E+02</rscale>
<asrwt>0</asrwt>
<pdfrwt beam="1">  1        4 0.28423683E-02 0.89094927E+02</pdfrwt>
<pdfrwt beam="2">  1       -4 0.81681274E-01 0.89094927E+02</pdfrwt>
<totfact> 0.11935705E+03</totfact>
</mgrwt>
</event>
<event>
 8    1  0.6836165E-004  0.1051237E+03  0.7546771E-02  0.1273851E+00
          2   -1    0    0  501    0  0.00000000000E+00  0.00000000000E+00  0.59921522519E+03  0.59921522519E+03  0.00000000000E+00 0. -1.
         -2   -1    0    0    0  501 -0.00000000000E+00 -0.00000000000E+00 -0.13216095772E+03  0.13216095772E+03  0.00000000000E+00 0.  1.
         23    2    1    2    0    0  0.21507974640E+02 -0.30596247281E+02 -0.10879907312E+03  0.14600615774E+03  0.89899034843E+02 0.  0.
         23    2    1    2    0    0 -0.21507974640E+02  0.30596247281E+02  0.57585334059E+03  0.58537002517E+03  0.98245983001E+02 0.  0.
          5    1    3    3  502    0  0.52289233027E+02 -0.33033695567E+01 -0.41558929662E+02  0.67039620939E+02  0.47000000000E+01 0. -1.
         -5    1    3    3    0  502 -0.30781258387E+02 -0.27292877724E+02 -0.67240143455E+02  0.78966536800E+02  0.47000000000E+01 0.  1.
          5    1    4    4  503    0 -0.51955177202E+02  0.46558126177E+02  0.41092300974E+03  0.41682947291E+03  0.47000000000E+01 0. -1.
         -5    1    4    4    0  503  0.30447202562E+02 -0.15961878896E+02  0.16493033085E+03  0.16854055226E+03  0.47000000000E+01 0.  1.
<mgrwt>
<rscale>  0 0.10312876E+03</rscale>
<asrwt>0</asrwt>
<pdfrwt beam="1">  1        2 0.92186956E-01 0.10512372E+03</pdfrwt>
<pdfrwt beam="2">  1       -2 0.20332455E-01 0.10512372E+03</pdfrwt>
<totfact> 0.10264209E+03</totfact>
</mgrwt>
</event>
<event>
 8    1  0.6836165E-004  0.9034138E+02  0.7546771E-02  0.1302429E+00
         -2   -1    0    0    0  501 -0.00000000000E+00  0.00000000000E+00  0.33141544688E+02  0.33141544688E+02  0.00000000000E+00 0.  1.
          2   -1    0    0  501    0  0.00000000000E+00 -0.00000000000E+00 -0.25073230277E+03  0.25073230277E+03  0.00000000000E+00 0. -1.
         23    2    1    2    0    0 -0.46487324699E+01  0.74191315931E+01 -0.13085769707E+03  0.15863731498E+03  0.89249126588E+02 0.  0.
         23    2    1    2    0    0  0.46487324699E+01 -0.74191315931E+01 -0.86733061018E+02  0.12523653248E+03  0.89916132957E+02 0.  0.
          5    1    4    4  502    0 -0.35436765687E+02 -0.22790435490E+02 -0.63060569097E+02  0.75986141414E+02  0.47000000000E+01 0. -1.
         -5    1    3    3    0  503  0.13204722124E+02 -0.34598659880E+02 -0.89038406127E+02  0.96547189071E+02  0.47000000000E+01 0.  1.
          5    1    3    3  503    0 -0.17853454594E+02  0.42017791473E+02 -0.41819290938E+02  0.62090125912E+02  0.47000000000E+01 0. -1.
         -5    1    4    4    0  502  0.40085498157E+02  0.15371303897E+02 -0.23672491921E+02  0.49250391062E+02  0.47000000000E+01 0.  1.
<mgrwt>
<rscale>  0 0.90174961E+02</rscale>
<asrwt>0</asrwt>
<pdfrwt beam="1">  1        2 0.38574200E-01 0.90341381E+02</pdfrwt>
<pdfrwt beam="2">  1       -2 0.50986993E-02 0.90341381E+02</pdfrwt>
<totfact> 0.22531911E+04</totfact>
</mgrwt>
</event>
<event>
 8    1  0.6836165E-004  0.2739291E+03  0.7546771E-02  0.1099679E+00
         -2   -1    0    0    0  501 -0.00000000000E+00  0.00000000000E+00  0.18207209635E+03  0.18207209635E+03  0.00000000000E+00 0.  1.
          2   -1    0    0  501    0  0.00000000000E+00 -0.00000000000E+00 -0.70204418764E+03  0.70204418764E+03  0.00000000000E+00 0. -1.
         23    2    1    2    0    0 -0.23432158930E+03  0.98992210209E+02 -0.54851370033E+03  0.61311047390E+03  0.10164206248E+03 0.  0.
         23    2    1    2    0    0  0.23432158930E+03 -0.98992210209E+02  0.28541609033E+02  0.27100581009E+03  0.89013823425E+02 0.  0.
          5    1    3    3  502    0 -0.15937752471E+03  0.14076040437E+02 -0.33930298702E+03  0.37516388059E+03  0.47000000000E+01 0. -1.
         -5    1    3    3    0  502 -0.74944064584E+02  0.84916169772E+02 -0.20921071332E+03  0.23794659332E+03  0.47000000000E+01 0.  1.
          5    1    4    4  503    0  0.20339116713E+02 -0.14579538505E+02  0.32009049241E+02  0.40901245030E+02  0.47000000000E+01 0. -1.
         -5    1    4    4    0  503  0.21398247259E+03 -0.84412671703E+02 -0.34674402077E+01  0.23010456506E+03  0.47000000000E+01 0.  1.
<mgrwt>
<rscale>  0 0.27281474E+03</rscale>
<asrwt>0</asrwt>
<pdfrwt beam="1">  1        2 0.10800680E+00 0.27392914E+03</pdfrwt>
<pdfrwt beam="2">  1       -2 0.28011091E-01 0.27392914E+03</pdfrwt>
<totfact> 0.48699659E+02</totfact>
</mgrwt>
</event>
<event>
 8    1  0.6836165E-004  0.9359176E+02  0.7546771E-02  0.1294396E+00
          3   -1    0    0  501    0  0.00000000000E+00  0.00000000000E+00  0.18633699366E+03  0.18633699366E+03  0.00000000000E+00 0. -1.
         -3   -1    0    0    0  501 -0.00000000000E+00 -0.00000000000E+00 -0.47203540284E+02  0.47203540284E+02  0.00000000000E+00 0.  1.
         23    2    1    2    0    0  0.15249363230E+02  0.79854591495E+01  0.77334747860E+02  0.12138663412E+03  0.91965977840E+02 0.  0.
         23    2    1    2    0    0 -0.15249363230E+02 -0.79854591495E+01  0.61798705511E+02  0.11215389982E+03  0.91995144463E+02 0.  0.
          5    1    3    3  502    0 -0.35877623161E+02 -0.11374961029E+02  0.39323233295E+02  0.54635155888E+02  0.47000000000E+01 0. -1.
         -5    1    4    4    0  503 -0.45950669055E+02 -0.10266224871E+02  0.52644866960E+01  0.47609496740E+02  0.47000000000E+01 0.  1.
          5    1    4    4  503    0  0.30701305825E+02  0.22807657215E+01  0.56534218815E+02  0.64544403078E+02  0.47000000000E+01 0. -1.
         -5    1    3    3    0  502  0.51126986391E+02  0.19360420179E+02  0.38011514565E+02  0.66751478234E+02  0.47000000000E+01 0.  1.
<mgrwt>
<rscale>  0 0.93584590E+02</rscale>
<asrwt>0</asrwt>
<pdfrwt beam="1">  1        3 0.28667229E-01 0.93591758E+02</pdfrwt>
<pdfrwt beam="2">  1       -3 0.72620832E-02 0.93591758E+02</pdfrwt>
<totfact> 0.30976547E+03</totfact>
</mgrwt>
</event>
<event>
 8    1  0.6836165E-004  0.9132940E+02  0.7546771E-02  0.1300364E+00
         -1   -1    0    0    0  501 -0.00000000000E+00  0.00000000000E+00  0.67141326822E+02  0.67141326822E+02  0.00000000000E+00 0.  1.
          1   -1    0    0  501    0  0.00000000000E+00 -0.00000000000E+00 -0.16450236707E+03  0.16450236707E+03  0.00000000000E+00 0. -1.
         23    2    1    2    0    0 -0.50000435507E+01 -0.84216930438E+00 -0.10687047550E+03  0.13982055383E+03  0.90015437859E+02 0.  0.
         23    2    1    2    0    0  0.50000435507E+01  0.84216930438E+00  0.95094352546E+01  0.91823140068E+02  0.91188540993E+02 0.  0.
          5    1    4    4  502    0  0.38848772651E+02 -0.11506397391E+01 -0.22333135234E+02  0.45071166367E+02  0.47000000000E+01 0. -1.
         -5    1    3    3    0  503 -0.30064753819E+02  0.32084950112E+02 -0.33586722245E+02  0.55529193737E+02  0.47000000000E+01 0.  1.
          5    1    3    3  503    0  0.25064710268E+02 -0.32927119417E+02 -0.73283753259E+02  0.84291360089E+02  0.47000000000E+01 0. -1.
         -5    1    4    4    0  502 -0.33848729100E+02  0.19928090434E+01  0.31842570489E+02  0.46751973701E+02  0.47000000000E+01 0.  1.
<mgrwt>
<rscale>  0 0.91035166E+02</rscale>
<asrwt>0</asrwt>
<pdfrwt beam="1">  1        1 0.25308056E-01 0.91329402E+02</pdfrwt>
<pdfrwt beam="2">  1       -1 0.10329435E-01 0.91329402E+02</pdfrwt>
<totfact> 0.99287936E+03</totfact>
</mgrwt>
</event>
<event>
 8    1  0.6836165E-004  0.1187459E+03  0.7546771E-02  0.1245310E+00
         -1   -1    0    0    0  501 -0.00000000000E+00  0.00000000000E+00  0.65826442261E+02  0.65826442261E+02  0.00000000000E+00 0.  1.
          1   -1    0    0  501    0  0.00000000000E+00 -0.00000000000E+00 -0.36422493794E+03  0.36422493794E+03  0.00000000000E+00 0. -1.
         23    2    1    2    0    0 -0.20790756531E+02  0.73385423108E+02 -0.10829837694E+02  0.11893029123E+03  0.90606031290E+02 0.  0.
         23    2    1    2    0    0  0.20790756531E+02 -0.73385423108E+02 -0.28756865799E+03  0.31112108897E+03  0.91010565671E+02 0.  0.
          5    1    4    4  502    0 -0.27188499882E+02 -0.62001514525E+02 -0.14263851717E+03  0.15795961164E+03  0.47000000000E+01 0. -1.
         -5    1    3    3    0  503 -0.27326067550E+01  0.39451804969E+02  0.39054539502E+02  0.55778661787E+02  0.47000000000E+01 0.  1.
          5    1    3    3  503    0 -0.18058149776E+02  0.33933618139E+02 -0.49884377196E+02  0.63151629445E+02  0.47000000000E+01 0. -1.
         -5    1    4    4    0  502  0.47979256413E+02 -0.11383908583E+02 -0.14493014082E+03  0.15316147733E+03  0.47000000000E+01 0.  1.
<mgrwt>
<rscale>  0 0.11866843E+03</rscale>
<asrwt>0</asrwt>
<pdfrwt beam="1">  1        1 0.56034606E-01 0.11874594E+03</pdfrwt>
<pdfrwt beam="2">  1       -1 0.10127145E-01 0.11874594E+03</pdfrwt>
<totfact> 0.39180350E+03</totfact>
</mgrwt>
</event>
<event>
 8    1  0.6836165E-004  0.9983362E+02  0.7546771E-02  0.1283351E+00
          1   -1    0    0  501    0  0.00000000000E+00  0.00000000000E+00  0.44717902679E+03  0.44717902679E+03  0.00000000000E+00 0. -1.
         -1   -1    0    0    0  501 -0.00000000000E+00 -0.00000000000E+00 -0.24257921141E+02  0.24257921141E+02  0.00000000000E+00 0.  1.
         23    2    1    2    0    0  0.13677514031E+02  0.17769217134E+02  0.12287860731E+03  0.15522143314E+03  0.92150538280E+02 0.  0.
         23    2    1    2    0    0 -0.13677514031E+02 -0.17769217134E+02  0.30004249834E+03  0.31621551479E+03  0.97282740067E+02 0.  0.
          5    1    4    4  502    0  0.22355842954E+02  0.26994382051E+02  0.17476714667E+03  0.17830907417E+03  0.47000000000E+01 0. -1.
         -5    1    3    3    0  503  0.22218944039E+02 -0.30316589543E+02  0.85583778687E+02  0.93591934749E+02  0.47000000000E+01 0.  1.
          5    1    3    3  503    0 -0.85414300088E+01  0.48085806677E+02  0.37294828621E+02  0.61629498393E+02  0.47000000000E+01 0. -1.
         -5    1    4    4    0  502 -0.36033356985E+02 -0.44763599185E+02  0.12527535167E+03  0.13790644061E+03  0.47000000000E+01 0.  1.
<mgrwt>
<rscale>  0 0.98560972E+02</rscale>
<asrwt>0</asrwt>
<pdfrwt beam="1">  1        1 0.68796767E-01 0.99833616E+02</pdfrwt>
<pdfrwt beam="2">  1       -1 0.37319882E-02 0.99833616E+02</pdfrwt>
<totfact> 0.13168427E+04</totfact>
</mgrwt>
</event>
<event>
 8    1  0.8803805E-004  0.1032173E+03  0.7546771E-02  0.1274134E+00
          2   -1    0    0  501    0  0.00000000000E+00  0.00000000000E+00  0.63350007071E+03  0.63350007071E+03  0.00000000000E+00 0. -1.
         -2   -1    0    0    0  501 -0.00000000000E+00 -0.00000000000E+00 -0.31753262713E+02  0.31753262713E+02  0.00000000000E+00 0.  1.
         23    2    1    2    0    0 -0.15631036238E+01  0.50239067130E+02  0.52942825534E+03  0.53922241633E+03  0.89107404648E+02 0.  0.
         23    2    1    2    0    0  0.15631036238E+01 -0.50239067130E+02  0.72318552664E+02  0.12603091710E+03  0.90152159409E+02 0.  0.
          5    1    3    3  502    0  0.14221648811E+02  0.72284156039E+02  0.35038117853E+03  0.35807305787E+03  0.47000000000E+01 0. -1.
         -5    1    3    3    0  502 -0.15784752435E+02 -0.22045088909E+02  0.17904707681E+03  0.18114935845E+03  0.47000000000E+01 0.  1.
          5    1    4    4  503    0  0.33170047065E+02  0.10040176658E+02  0.25646017666E+02  0.43368945015E+02  0.47000000000E+01 0. -1.
         -5    1    4    4    0  503 -0.31606943441E+02 -0.60279243788E+02  0.46672534998E+02  0.82661972082E+02  0.47000000000E+01 0.  1.
<mgrwt>
<rscale>  0 0.10298877E+03</rscale>
<asrwt>0</asrwt>
<pdfrwt beam="1">  1        2 0.97461540E-01 0.10321734E+03</pdfrwt>
<pdfrwt beam="2">  1       -2 0.48851178E-02 0.10321734E+03</pdfrwt>
<totfact> 0.90247231E+03</totfact>
</mgrwt>
</event>
<event>
 8    1  0.6836165E-004  0.9800908E+02  0.7546771E-02  0.1287988E+00
          2   -1    0    0  501    0  0.00000000000E+00  0.00000000000E+00  0.57034223533E+02  0.57034223533E+02  0.00000000000E+00 0. -1.
         -2   -1    0    0    0  501 -0.00000000000E+00 -0.00000000000E+00 -0.20902597256E+03  0.20902597256E+03  0.00000000000E+00 0.  1.
         23    2    1    2    0    0  0.10388192630E+02 -0.81355848849E+01 -0.14356793419E+03  0.17383190865E+03  0.97116828876E+02 0.  0.
         23    2    1    2    0    0 -0.10388192630E+02  0.81355848849E+01 -0.84238148420E+01  0.92228287444E+02  0.90890010787E+02 0.  0.
          5    1    3    3  502    0 -0.34243475941E+02  0.49003769271E+01 -0.11230473682E+03  0.11760558342E+03  0.47000000000E+01 0. -1.
         -5    1    4    4    0  503  0.15297805822E+02  0.44344650831E+02 -0.59387852572E+01  0.47516629622E+02  0.47000000000E+01 0.  1.
          5    1    4    4  503    0 -0.25685998451E+02 -0.36209065947E+02 -0.24850295848E+01  0.44711657822E+02  0.47000000000E+01 0. -1.
         -5    1    3    3    0  502  0.44631668571E+02 -0.13035961812E+02 -0.31263197368E+02  0.56226325235E+02  0.47000000000E+01 0.  1.
<mgrwt>
<rscale>  0 0.96429742E+02</rscale>
<asrwt>0</asrwt>
<pdfrwt beam="1">  1        2 0.87744959E-02 0.98009085E+02</pdfrwt>
<pdfrwt beam="2">  1       -2 0.32157842E-01 0.98009085E+02</pdfrwt>
<totfact> 0.62645536E+03</totfact>
</mgrwt>
</event>
<event>
 8    1  0.6836165E-004  0.9580176E+02  0.7546771E-02  0.1289632E+00
         -4   -1    0    0    0  501 -0.00000000000E+00  0.00000000000E+00  0.42568744262E+02  0.42568744262E+02  0.00000000000E+00 0.  1.
          4   -1    0    0  501    0  0.00000000000E+00 -0.00000000000E+00 -0.21509300539E+03  0.21509300539E+03  0.00000000000E+00 0. -1.
         23    2    1    2    0    0  0.14766597657E+02 -0.26622397371E+02 -0.80248297335E+02  0.12497106079E+03  0.90835964030E+02 0.  0.
         23    2    1    2    0    0 -0.14766597657E+02  0.26622397371E+02 -0.92275963790E+02  0.13269068886E+03  0.90361280251E+02 0.  0.
          5    1    4    4  502    0  0.24569337202E+02  0.43400390646E+02 -0.35233910675E+02  0.61243487003E+02  0.47000000000E+01 0. -1.
         -5    1    3    3    0  503  0.51485457732E+02 -0.20156633894E+02 -0.61968998472E+02  0.83182263852E+02  0.47000000000E+01 0.  1.
          5    1    3    3  503    0 -0.36718860075E+02 -0.64657634766E+01 -0.18279298862E+02  0.41788796937E+02  0.47000000000E+01 0. -1.
         -5    1    4    4    0  502 -0.39335934860E+02 -0.16777993276E+02 -0.57042053116E+02  0.71447201858E+02  0.47000000000E+01 0.  1.
<mgrwt>
<rscale>  0 0.95689069E+02</rscale>
<asrwt>0</asrwt>
<pdfrwt beam="1">  1        4 0.33091232E-01 0.95801758E+02</pdfrwt>
<pdfrwt beam="2">  1       -4 0.65490375E-02 0.95801758E+02</pdfrwt>
<totfact> 0.20463726E+03</totfact>
</mgrwt>
</event>
<event>
 8    1  0.6836165E-004  0.1121641E+03  0.7546771E-02  0.1256677E+00
         -1   -1    0    0    0  501 -0.00000000000E+00  0.00000000000E+00  0.89191085459E+02  0.89191085459E+02  0.00000000000E+00 0.  1.
          1   -1    0    0  501    0  0.00000000000E+00 -0.00000000000E+00 -0.14096058428E+03  0.14096058428E+03  0.00000000000E+00 0. -1.
         23    2    1    2    0    0  0.63911825255E+02  0.61417465282E+01 -0.23119244631E+02  0.11438627920E+03  0.91800212080E+02 0.  0.
         23    2    1    2    0    0 -0.63911825255E+02 -0.61417465282E+01 -0.28650254187E+02  0.11576539054E+03  0.91969267282E+02 0.  0.
          5    1    4    4  502    0 -0.55758782342E+02 -0.25935710200E+02 -0.54197765502E+02  0.82104754169E+02  0.47000000000E+01 0. -1.
         -5    1    3    3    0  503  0.75774107591E+02 -0.15550812723E+02  0.37304778335E+01  0.77585756570E+02  0.47000000000E+01 0.  1.
          5    1    3    3  503    0 -0.11862282337E+02  0.21692559251E+02 -0.26849722464E+02  0.36800522626E+02  0.47000000000E+01 0. -1.
         -5    1    4    4    0  502 -0.81530429132E+01  0.19793963671E+02  0.25547511315E+02  0.33660636372E+02  0.47000000000E+01 0.  1.
<mgrwt>
<rscale>  0 0.11212945E+03</rscale>
<asrwt>0</asrwt>
<pdfrwt beam="1">  1        1 0.21686244E-01 0.11216411E+03</pdfrwt>
<pdfrwt beam="2">  1       -1 0.13721705E-01 0.11216411E+03</pdfrwt>
<totfact> 0.79331173E+03</totfact>
</mgrwt>
</event>
<event>
 8    1  0.6836165E-004  0.1046805E+03  0.7546771E-02  0.1273021E+00
          3   -1    0    0  501    0  0.00000000000E+00  0.00000000000E+00  0.10320376231E+03  0.10320376231E+03  0.00000000000E+00 0. -1.
         -3   -1    0    0    0  501 -0.00000000000E+00 -0.00000000000E+00 -0.10644399763E+03  0.10644399763E+03  0.00000000000E+00 0.  1.
         23    2    1    2    0    0 -0.23400890125E+02  0.11635696769E+02 -0.23758675170E+02  0.10297526364E+03  0.96728688495E+02 0.  0.
         23    2    1    2    0    0  0.23400890125E+02 -0.11635696769E+02  0.20518439849E+02  0.10667249630E+03  0.10136579302E+03 0.  0.
          5    1    4    4  502    0  0.54877972241E+02 -0.19545826647E+02  0.37800496247E+02  0.69603151460E+02  0.47000000000E+01 0. -1.
         -5    1    3    3    0  503 -0.36235542361E+02  0.46435903334E+02 -0.78572690201E+00  0.59093273859E+02  0.47000000000E+01 0.  1.
          5    1    3    3  503    0  0.12834652236E+02 -0.34800206565E+02 -0.22972948268E+02  0.43881989781E+02  0.47000000000E+01 0. -1.
         -5    1    4    4    0  502 -0.31477082115E+02  0.79101298783E+01 -0.17282056398E+02  0.37069344836E+02  0.47000000000E+01 0.  1.
<mgrwt>
<rscale>  0 0.10354118E+03</rscale>
<asrwt>0</asrwt>
<pdfrwt beam="1">  1        3 0.15877502E-01 0.10468054E+03</pdfrwt>
<pdfrwt beam="2">  1       -3 0.16376000E-01 0.10468054E+03</pdfrwt>
<totfact> 0.23388751E+03</totfact>
</mgrwt>
</event>
<event>
 8    1  0.6836165E-004  0.9226872E+02  0.7546771E-02  0.1297815E+00
         -1   -1    0    0    0  501 -0.00000000000E+00  0.00000000000E+00  0.35129656055E+02  0.35129656055E+02  0.00000000000E+00 0.  1.
          1   -1    0    0  501    0  0.00000000000E+00 -0.00000000000E+00 -0.24071324093E+03  0.24071324093E+03  0.00000000000E+00 0. -1.
         23    2    1    2    0    0 -0.97270739855E+01  0.13476609861E+02 -0.10201958239E+03  0.13713810705E+03  0.90125635819E+02 0.  0.
         23    2    1    2    0    0  0.97270739855E+01 -0.13476609861E+02 -0.10356400248E+03  0.13870478993E+03  0.90759468702E+02 0.  0.
          5    1    3    3  502    0 -0.96793941191E+01 -0.37820924968E+02 -0.53306263477E+02  0.66240174832E+02  0.47000000000E+01 0. -1.
         -5    1    4    4    0  503  0.31385598600E+02 -0.13194053102E+02 -0.16501492533E+01  0.34408601095E+02  0.47000000000E+01 0.  1.
          5    1    4    4  503    0 -0.21658524614E+02 -0.28255675856E+00 -0.10191385323E+03  0.10429618884E+03  0.47000000000E+01 0. -1.
         -5    1    3    3    0  502 -0.47679866394E-01  0.51297534828E+02 -0.48713318914E+02  0.70897932216E+02  0.47000000000E+01 0.  1.
<mgrwt>
<rscale>  0 0.92112472E+02</rscale>
<asrwt>0</asrwt>
<pdfrwt beam="1">  1        1 0.37032806E-01 0.92268717E+02</pdfrwt>
<pdfrwt beam="2">  1       -1 0.54045626E-02 0.92268717E+02</pdfrwt>
<totfact> 0.16331344E+04</totfact>
</mgrwt>
</event>
<event>
 8    1  0.6836165E-004  0.9800496E+02  0.7546771E-02  0.1286539E+00
          2   -1    0    0  501    0  0.00000000000E+00  0.00000000000E+00  0.58166259572E+02  0.58166259572E+02  0.00000000000E+00 0. -1.
         -2   -1    0    0    0  501 -0.00000000000E+00 -0.00000000000E+00 -0.17604946103E+03  0.17604946103E+03  0.00000000000E+00 0.  1.
         23    2    1    2    0    0  0.12424387667E+02  0.22995836884E+02 -0.94272965348E+02  0.13340691802E+03  0.90701928628E+02 0.  0.
         23    2    1    2    0    0 -0.12424387667E+02 -0.22995836884E+02 -0.23610236106E+02  0.10080880258E+03  0.94455267221E+02 0.  0.
          5    1    3    3  502    0 -0.37598134336E+02  0.15334936919E+02 -0.26579343479E+02  0.48757886497E+02  0.47000000000E+01 0. -1.
         -5    1    3    3    0  502  0.50022522003E+02  0.76608999643E+01 -0.67693621869E+02  0.84649031522E+02  0.47000000000E+01 0.  1.
          5    1    4    4  503    0 -0.19270199527E+02  0.31453676580E+02  0.69353589547E+01  0.37826757250E+02  0.47000000000E+01 0. -1.
         -5    1    4    4    0  503  0.68458118596E+01 -0.54449513463E+02 -0.30545595061E+02  0.62982045331E+02  0.47000000000E+01 0.  1.
<mgrwt>
<rscale>  0 0.97089178E+02</rscale>
<asrwt>0</asrwt>
<pdfrwt beam="1">  1        2 0.89486556E-02 0.98004956E+02</pdfrwt>
<pdfrwt beam="2">  1       -2 0.27084532E-01 0.98004956E+02</pdfrwt>
<totfact> 0.83015527E+03</totfact>
</mgrwt>
</event>
<event>
 8    1  0.6836165E-004  0.1133659E+03  0.7546771E-02  0.1254794E+00
          1   -1    0    0  501    0  0.00000000000E+00  0.00000000000E+00  0.53023821027E+02  0.53023821027E+02  0.00000000000E+00 0. -1.
         -1   -1    0    0    0  501 -0.00000000000E+00 -0.00000000000E+00 -0.25546584997E+03  0.25546584997E+03  0.00000000000E+00 0.  1.
         23    2    1    2    0    0  0.65906244093E+02 -0.11270808505E+02 -0.13851006731E+03  0.17898842425E+03  0.91548638078E+02 0.  0.
         23    2    1    2    0    0 -0.65906244093E+02  0.11270808505E+02 -0.63931961637E+02  0.12950124675E+03  0.90623468577E+02 0.  0.
          5    1    4    4  502    0 -0.78223112738E+02  0.27863596639E+02 -0.68587693669E+02  0.10780351157E+03  0.47000000000E+01 0. -1.
         -5    1    3    3    0  503 -0.14576013350E+02 -0.21237308277E+02 -0.62401175723E+02  0.67671856482E+02  0.47000000000E+01 0.  1.
          5    1    3    3  503    0  0.80482257443E+02  0.99664997719E+01 -0.76108891585E+02  0.11131656777E+03  0.47000000000E+01 0. -1.
         -5    1    4    4    0  502  0.12316868645E+02 -0.16592788134E+02  0.46557320318E+01  0.21697735182E+02  0.47000000000E+01 0.  1.
<mgrwt>
<rscale>  0 0.11317894E+03</rscale>
<asrwt>0</asrwt>
<pdfrwt beam="1">  1        1 0.81575109E-02 0.11336586E+03</pdfrwt>
<pdfrwt beam="2">  1       -1 0.39302438E-01 0.11336586E+03</pdfrwt>
<totfact> 0.50777220E+03</totfact>
</mgrwt>
</event>
<event>
 8    1  0.6836165E-004  0.9626553E+02  0.7546771E-02  0.1290990E+00
          2   -1    0    0  501    0  0.00000000000E+00  0.00000000000E+00  0.22217290619E+03  0.22217290619E+03  0.00000000000E+00 0. -1.
         -2   -1    0    0    0  501 -0.00000000000E+00 -0.00000000000E+00 -0.40752631703E+02  0.40752631703E+02  0.00000000000E+00 0.  1.
         23    2    1    2    0    0  0.58283581389E+00  0.21625379390E+02  0.72002156426E+02  0.12021382224E+03  0.93803282441E+02 0.  0.
         23    2    1    2    0    0 -0.58283581389E+00 -0.21625379390E+02  0.10941811806E+03  0.14271171565E+03  0.89029840462E+02 0.  0.
          5    1    3    3  502    0 -0.43069606124E+02 -0.42974250558E+01  0.21919692803E+02  0.48744453699E+02  0.47000000000E+01 0. -1.
         -5    1    4    4    0  503  0.20884834304E+02 -0.26092159460E+02  0.11479259348E+03  0.11965118724E+03  0.47000000000E+01 0.  1.
          5    1    4    4  503    0 -0.21467670118E+02  0.44667800696E+01 -0.53744754238E+01  0.23060528411E+02  0.47000000000E+01 0. -1.
         -5    1    3    3    0  502  0.43652441938E+02  0.25922804446E+02  0.50082463623E+02  0.71469368543E+02  0.47000000000E+01 0.  1.
<mgrwt>
<rscale>  0 0.95082640E+02</rscale>
<asrwt>0</asrwt>
<pdfrwt beam="1">  1        2 0.34180446E-01 0.96265531E+02</pdfrwt>
<pdfrwt beam="2">  1       -2 0.62696358E-02 0.96265531E+02</pdfrwt>
<totfact> 0.18915643E+04</totfact>
</mgrwt>
</event>
<event>
 8    1  0.6836165E-004  0.9695162E+02  0.7546771E-02  0.1288476E+00
         -1   -1    0    0    0  501 -0.00000000000E+00  0.00000000000E+00  0.14796669059E+03  0.14796669059E+03  0.00000000000E+00 0.  1.
          1   -1    0    0  501    0  0.00000000000E+00 -0.00000000000E+00 -0.61694393599E+02  0.61694393599E+02  0.00000000000E+00 0. -1.
         23    2    1    2    0    0  0.11859880717E+02 -0.21676450061E+02  0.46213986022E+02  0.10475977633E+03  0.90710269403E+02 0.  0.
         23    2    1    2    0    0 -0.11859880717E+02  0.21676450061E+02  0.40058310971E+02  0.10490130786E+03  0.93750151226E+02 0.  0.
          5    1    4    4  502    0 -0.40905151599E+02  0.82710876200E+01  0.55067614782E+02  0.69254418743E+02  0.47000000000E+01 0. -1.
         -5    1    3    3    0  503  0.19474181458E+02  0.11912437016E+02  0.62256247335E+02  0.66476162881E+02  0.47000000000E+01 0.  1.
          5    1    3    3  503    0 -0.76143007413E+01 -0.33588887077E+02 -0.16042261313E+02  0.38283613451E+02  0.47000000000E+01 0. -1.
         -5    1    4    4    0  502  0.29045270882E+02  0.13405362441E+02 -0.15009303811E+02  0.35646889116E+02  0.47000000000E+01 0.  1.
<mgrwt>
<rscale>  0 0.96209053E+02</rscale>
<asrwt>0</asrwt>
<pdfrwt beam="1">  1        1 0.94914452E-02 0.96951617E+02</pdfrwt>
<pdfrwt beam="2">  1       -1 0.22764106E-01 0.96951617E+02</pdfrwt>
<totfact> 0.10209371E+04</totfact>
</mgrwt>
</event>
<event>
 8    1  0.6836165E-004  0.1604696E+03  0.7546771E-02  0.1188752E+00
          2   -1    0    0  501    0  0.00000000000E+00  0.00000000000E+00  0.11972892543E+04  0.11972892543E+04  0.00000000000E+00 0. -1.
         -2   -1    0    0    0  501 -0.00000000000E+00 -0.00000000000E+00 -0.29067753968E+02  0.29067753968E+02  0.00000000000E+00 0.  1.
         23    2    1    2    0    0 -0.12423157826E+03 -0.41122369725E+02  0.26850785765E+03  0.31280500909E+03  0.92876098987E+02 0.  0.
         23    2    1    2    0    0  0.12423157826E+03  0.41122369725E+02  0.89971364266E+03  0.91355199916E+03  0.89264113996E+02 0.  0.
          5    1    4    4  502    0  0.50737774759E+02  0.63507028548E+02  0.45650781194E+03  0.46371212711E+03  0.47000000000E+01 0. -1.
         -5    1    4    4    0  502  0.73493803500E+02 -0.22384658823E+02  0.44320583071E+03  0.44983987205E+03  0.47000000000E+01 0.  1.
          5    1    3    3  503    0 -0.37025189395E+02  0.22615032922E+02  0.36688321500E+02  0.57012518786E+02  0.47000000000E+01 0. -1.
         -5    1    3    3    0  503 -0.87206388863E+02 -0.63737402647E+02  0.23181953615E+03  0.25579249030E+03  0.47000000000E+01 0.  1.
<mgrwt>
<rscale>  0 0.15995134E+03</rscale>
<asrwt>0</asrwt>
<pdfrwt beam="1">  1        2 0.18419831E+00 0.16046964E+03</pdfrwt>
<pdfrwt beam="2">  1       -2 0.44719631E-02 0.16046964E+03</pdfrwt>
<totfact> 0.45925374E+03</totfact>
</mgrwt>
</event>
<event>
 8    1  0.6836165E-004  0.1017420E+03  0.7546771E-02  0.1281342E+00
          1   -1    0    0  501    0  0.00000000000E+00  0.00000000000E+00  0.29168328631E+02  0.29168328631E+02  0.00000000000E+00 0. -1.
         -1   -1    0    0    0  501 -0.00000000000E+00 -0.00000000000E+00 -0.66247724164E+03  0.66247724164E+03  0.00000000000E+00 0.  1.
         23    2    1    2    0    0 -0.11655298662E+02  0.18856139803E+02 -0.76978485851E+02  0.12758181627E+03  0.99297696666E+02 0.  0.
         23    2    1    2    0    0  0.11655298662E+02 -0.18856139803E+02 -0.55633042716E+03  0.56406375401E+03  0.90404504329E+02 0.  0.
          5    1    4    4  502    0  0.43017052511E+01  0.34933808251E+02 -0.15288378295E+03  0.15695354955E+03  0.47000000000E+01 0. -1.
         -5    1    3    3    0  503  0.15007678457E+02 -0.26914522031E+02 -0.66411625554E+02  0.73363587137E+02  0.47000000000E+01 0.  1.
          5    1    3    3  503    0 -0.26662977119E+02  0.45770661834E+02 -0.10566860297E+02  0.54218229131E+02  0.47000000000E+01 0. -1.
         -5    1    4    4    0  502  0.73535934111E+01 -0.53789948054E+02 -0.40344664421E+03  0.40711020445E+03  0.47000000000E+01 0.  1.
<mgrwt>
<rscale>  0 0.99504409E+02</rscale>
<asrwt>0</asrwt>
<pdfrwt beam="1">  1        1 0.44874349E-02 0.10174199E+03</pdfrwt>
<pdfrwt beam="2">  1       -1 0.10191958E+00 0.10174199E+03</pdfrwt>
<totfact> 0.17931958E+03</totfact>
</mgrwt>
</event>
<event>
 8    1  0.6836165E-004  0.1764959E+03  0.7546771E-02  0.1171331E+00
         -2   -1    0    0    0  501 -0.00000000000E+00  0.00000000000E+00  0.56959860453E+02  0.56959860453E+02  0.00000000000E+00 0.  1.
          2   -1    0    0  501    0  0.00000000000E+00 -0.00000000000E+00 -0.77404833365E+03  0.77404833365E+03  0.00000000000E+00 0. -1.
         23    2    1    2    0    0 -0.14750863817E+03 -0.33308255806E+02 -0.13314932369E+03  0.22108715628E+03  0.91008516273E+02 0.  0.
         23    2    1    2    0    0  0.14750863817E+03  0.33308255806E+02 -0.58393914951E+03  0.60992103782E+03  0.90280140695E+02 0.  0.
          5    1    3    3  502    0 -0.78869237521E+02 -0.21360076853E+02 -0.12686515259E+03  0.15097505241E+03  0.47000000000E+01 0. -1.
         -5    1    4    4    0  503  0.10495095440E+03 -0.18487056966E+02 -0.40391771698E+03  0.41776558761E+03  0.47000000000E+01 0.  1.
          5    1    4    4  503    0  0.42557683774E+02  0.51795312772E+02 -0.18002143253E+03  0.19215545021E+03  0.47000000000E+01 0. -1.
         -5    1    3    3    0  502 -0.68639400654E+02 -0.11948178953E+02 -0.62841710974E+01  0.70112103868E+02  0.47000000000E+01 0.  1.
<mgrwt>
<rscale>  0 0.17640217E+03</rscale>
<asrwt>0</asrwt>
<pdfrwt beam="1">  1        2 0.11908436E+00 0.17649586E+03</pdfrwt>
<pdfrwt beam="2">  1       -2 0.87630551E-02 0.17649586E+03</pdfrwt>
<totfact> 0.29929186E+03</totfact>
</mgrwt>
</event>
<event>
 8    1  0.6836165E-004  0.9264689E+02  0.7546771E-02  0.1298289E+00
          4   -1    0    0  501    0  0.00000000000E+00  0.00000000000E+00  0.46488817272E+02  0.46488817272E+02  0.00000000000E+00 0. -1.
         -4   -1    0    0    0  501 -0.00000000000E+00 -0.00000000000E+00 -0.20196537477E+03  0.20196537477E+03  0.00000000000E+00 0.  1.
         23    2    1    2    0    0 -0.11179140724E+02  0.38111110841E+01 -0.11863311698E+03  0.14875020473E+03  0.88956782801E+02 0.  0.
         23    2    1    2    0    0  0.11179140724E+02 -0.38111110841E+01 -0.36843440519E+02  0.99703987319E+02  0.91890958331E+02 0.  0.
          5    1    3    3  502    0  0.30295627405E+02 -0.96938040213E+01 -0.13578909814E+02  0.34903748624E+02  0.47000000000E+01 0. -1.
         -5    1    3    3    0  502 -0.41474768129E+02  0.13504915105E+02 -0.10505420717E+03  0.11384645610E+03  0.47000000000E+01 0.  1.
          5    1    4    4  503    0  0.20239680209E+02 -0.42257068962E+02 -0.25064527120E+01  0.47155878080E+02  0.47000000000E+01 0. -1.
         -5    1    4    4    0  503 -0.90605394850E+01  0.38445957878E+02 -0.34336987807E+02  0.52548109239E+02  0.47000000000E+01 0.  1.
<mgrwt>
<rscale>  0 0.91910799E+02</rscale>
<asrwt>0</asrwt>
<pdfrwt beam="1">  1        4 0.71521255E-02 0.92646889E+02</pdfrwt>
<pdfrwt beam="2">  1       -4 0.31071597E-01 0.92646889E+02</pdfrwt>
<totfact> 0.19806136E+03</totfact>
</mgrwt>
</event>
<event>
 8    1  0.6836165E-004  0.1006579E+03  0.7546771E-02  0.1278939E+00
         -2   -1    0    0    0  501 -0.00000000000E+00  0.00000000000E+00  0.32950055448E+02  0.32950055448E+02  0.00000000000E+00 0.  1.
          2   -1    0    0  501    0  0.00000000000E+00 -0.00000000000E+00 -0.32070462781E+03  0.32070462781E+03  0.00000000000E+00 0. -1.
         23    2    1    2    0    0  0.39888533712E+02 -0.10567870108E+02 -0.10779685650E+03  0.14745865837E+03  0.91766653291E+02 0.  0.
         23    2    1    2    0    0 -0.39888533712E+02  0.10567870108E+02 -0.17995771587E+03  0.20619602489E+03  0.91810926263E+02 0.  0.
          5    1    4    4  502    0 -0.35539726108E+02 -0.22713142416E+02 -0.16273871395E+03  0.16818126527E+03  0.47000000000E+01 0. -1.
         -5    1    3    3    0  503  0.46013618559E+02  0.15961315776E+02 -0.15823203492E+02  0.51424512277E+02  0.47000000000E+01 0.  1.
          5    1    3    3  503    0 -0.61250848470E+01 -0.26529185884E+02 -0.91973653004E+02  0.96034146089E+02  0.47000000000E+01 0. -1.
         -5    1    4    4    0  502 -0.43488076039E+01  0.33281012524E+02 -0.17219001921E+02  0.38014759625E+02  0.47000000000E+01 0.  1.
<mgrwt>
<rscale>  0 0.10064784E+03</rscale>
<asrwt>0</asrwt>
<pdfrwt beam="1">  1        2 0.49339172E-01 0.10065794E+03</pdfrwt>
<pdfrwt beam="2">  1       -2 0.50692395E-02 0.10065794E+03</pdfrwt>
<totfact> 0.17756833E+04</totfact>
</mgrwt>
</event>
<event>
 8    1  0.6836165E-004  0.9327422E+02  0.7546771E-02  0.1295275E+00
         -1   -1    0    0    0  501 -0.00000000000E+00  0.00000000000E+00  0.10498279411E+03  0.10498279411E+03  0.00000000000E+00 0.  1.
          1   -1    0    0  501    0  0.00000000000E+00 -0.00000000000E+00 -0.92730792388E+02  0.92730792388E+02  0.00000000000E+00 0. -1.
         23    2    1    2    0    0  0.18987739922E+02  0.10403966898E+02  0.38761982081E+02  0.10074524222E+03  0.90434151631E+02 0.  0.
         23    2    1    2    0    0 -0.18987739922E+02 -0.10403966898E+02 -0.26509980357E+02  0.96968344276E+02  0.90726533818E+02 0.  0.
          5    1    3    3  502    0 -0.14078501276E+02  0.31497600393E+02 -0.11635005705E+02  0.36711937929E+02  0.47000000000E+01 0. -1.
         -5    1    4    4    0  503 -0.39682656932E+02 -0.36115471571E+02  0.80619350576E+00  0.53868177025E+02  0.47000000000E+01 0.  1.
          5    1    4    4  503    0  0.20694917010E+02  0.25711504673E+02 -0.27316173863E+02  0.43100167252E+02  0.47000000000E+01 0. -1.
         -5    1    3    3    0  502  0.33066241199E+02 -0.21093633495E+02  0.50396987786E+02  0.64033304295E+02  0.47000000000E+01 0.  1.
<mgrwt>
<rscale>  0 0.93203049E+02</rscale>
<asrwt>0</asrwt>
<pdfrwt beam="1">  1        1 0.14266276E-01 0.93274223E+02</pdfrwt>
<pdfrwt beam="2">  1       -1 0.16151199E-01 0.93274223E+02</pdfrwt>
<totfact> 0.10316385E+04</totfact>
</mgrwt>
</event>
<event>
 8    1  0.6836165E-004  0.1038789E+03  0.7546771E-02  0.1274753E+00
         -1   -1    0    0    0  501 -0.00000000000E+00  0.00000000000E+00  0.87109630096E+01  0.87109630096E+01  0.00000000000E+00 0.  1.
          1   -1    0    0  501    0  0.00000000000E+00 -0.00000000000E+00 -0.11958397104E+04  0.11958397104E+04  0.00000000000E+00 0. -1.
         23    2    1    2    0    0  0.38724008211E+01 -0.43976781129E+02 -0.54557770012E+03  0.55537902525E+03  0.94031282342E+02 0.  0.
         23    2    1    2    0    0 -0.38724008211E+01  0.43976781129E+02 -0.64155104726E+03  0.64917164814E+03  0.88809513830E+02 0.  0.
          5    1    4    4  502    0 -0.40006745831E+02 -0.21496290704E+01 -0.27177028447E+03  0.27474777185E+03  0.47000000000E+01 0. -1.
         -5    1    3    3    0  503  0.34913027929E+02 -0.55147397717E+02 -0.27110539899E+03  0.27889134507E+03  0.47000000000E+01 0.  1.
          5    1    3    3  503    0 -0.31040627108E+02  0.11170616587E+02 -0.27447230113E+03  0.27648768018E+03  0.47000000000E+01 0. -1.
         -5    1    4    4    0  502  0.36134345010E+02  0.46126410200E+02 -0.36978076279E+03  0.37442387629E+03  0.47000000000E+01 0.  1.
<mgrwt>
<rscale>  0 0.10268297E+03</rscale>
<asrwt>0</asrwt>
<pdfrwt beam="1">  1        1 0.18397539E+00 0.10387894E+03</pdfrwt>
<pdfrwt beam="2">  1       -1 0.13401478E-02 0.10387894E+03</pdfrwt>
<totfact> 0.13425887E+04</totfact>
</mgrwt>
</event>
<event>
 8    1  0.6836165E-004  0.1209246E+03  0.7546771E-02  0.1242607E+00
          1   -1    0    0  501    0  0.00000000000E+00  0.00000000000E+00  0.49049828145E+03  0.49049828145E+03  0.00000000000E+00 0. -1.
         -1   -1    0    0    0  501 -0.00000000000E+00 -0.00000000000E+00 -0.29807946385E+02  0.29807946385E+02  0.00000000000E+00 0.  1.
         23    2    1    2    0    0  0.48632774301E+02  0.61925147536E+02  0.26979140229E+03  0.29565209941E+03  0.91776317764E+02 0.  0.
         23    2    1    2    0    0 -0.48632774301E+02 -0.61925147536E+02  0.19089893278E+03  0.22465412843E+03  0.88471488344E+02 0.  0.
          5    1    4    4  502    0 -0.21685326530E+02 -0.51377565681E+02  0.18685906528E+03  0.19505975474E+03  0.47000000000E+01 0. -1.
         -5    1    4    4    0  502 -0.26947447771E+02 -0.10547581855E+02  0.40398674948E+01  0.29594373684E+02  0.47000000000E+01 0.  1.
          5    1    3    3  503    0 -0.22833436692E+02  0.39513136805E+02  0.10158419525E+03  0.11146341344E+03  0.47000000000E+01 0. -1.
         -5    1    3    3    0  503  0.71466210993E+02  0.22412010731E+02  0.16820720704E+03  0.18418868597E+03  0.47000000000E+01 0.  1.
<mgrwt>
<rscale>  0 0.12029759E+03</rscale>
<asrwt>0</asrwt>
<pdfrwt beam="1">  1        1 0.75461268E-01 0.12092462E+03</pdfrwt>
<pdfrwt beam="2">  1       -1 0.45858382E-02 0.12092462E+03</pdfrwt>
<totfact> 0.87891249E+03</totfact>
</mgrwt>
</event>
<event>
 8    1  0.6836165E-004  0.1084816E+03  0.7546771E-02  0.1263663E+00
          2   -1    0    0  501    0  0.00000000000E+00  0.00000000000E+00  0.75822265343E+03  0.75822265343E+03  0.00000000000E+00 0. -1.
         -2   -1    0    0    0  501 -0.00000000000E+00 -0.00000000000E+00 -0.19075778535E+02  0.19075778535E+02  0.00000000000E+00 0.  1.
         23    2    1    2    0    0 -0.45901434863E+02 -0.38273012649E+02  0.19923899685E+03  0.22659998073E+03  0.89886640731E+02 0.  0.
         23    2    1    2    0    0  0.45901434863E+02  0.38273012649E+02  0.53990787804E+03  0.55069845123E+03  0.90534535939E+02 0.  0.
          5    1    4    4  502    0  0.66388707084E+02  0.15212867870E+02  0.45778298994E+03  0.46284581413E+03  0.47000000000E+01 0. -1.
         -5    1    3    3    0  503 -0.65466295524E+02 -0.32344409281E+02  0.93127030500E+02  0.11843449865E+03  0.47000000000E+01 0.  1.
          5    1    3    3  503    0  0.19564860661E+02 -0.59286033688E+01  0.10611196635E+03  0.10816548208E+03  0.47000000000E+01 0. -1.
         -5    1    4    4    0  502 -0.20487272221E+02  0.23060144779E+02  0.82124888093E+02  0.87852637095E+02  0.47000000000E+01 0.  1.
<mgrwt>
<rscale>  0 0.10834636E+03</rscale>
<asrwt>0</asrwt>
<pdfrwt beam="1">  1        2 0.11664962E+00 0.10848165E+03</pdfrwt>
<pdfrwt beam="2">  1       -2 0.29347358E-02 0.10848165E+03</pdfrwt>
<totfact> 0.15548556E+04</totfact>
</mgrwt>
</event>
<event>
 7    1  0.6836165E-004  0.1969919E+03  0.7546771E-02  0.1167071E+00
          3   -1    0    0  501    0  0.00000000000E+00  0.00000000000E+00  0.69433645978E+02  0.69433645978E+02  0.00000000000E+00 0. -1.
         -3   -1    0    0    0  501 -0.00000000000E+00 -0.00000000000E+00 -0.66453473534E+03  0.66453473534E+03  0.00000000000E+00 0.  1.
         23    2    1    2    0    0  0.54538264036E+02 -0.87668575861E+02 -0.49238269031E+03  0.51180426003E+03  0.94035554104E+02 0.  0.
          5    1    3    3  502    0  0.53402981850E+02 -0.67606111708E+02 -0.48009409655E+03  0.48778570741E+03  0.47000000000E+01 0. -1.
         -5    1    1    2    0  503 -0.63297798691E+02  0.12330111018E+03 -0.11804978937E+03  0.18211978987E+03  0.47000000000E+01 0.  1.
          5    1    1    2  503    0  0.87595346551E+01 -0.35632534323E+02  0.15331390315E+02  0.40044331417E+02  0.47000000000E+01 0. -1.
         -5    1    3    3    0  502  0.11352821861E+01 -0.20062464153E+02 -0.12288593755E+02  0.24018552621E+02  0.47000000000E+01 0.  1.
<mgrwt>
<rscale>  0 0.18075850E+03</rscale>
<asrwt>0</asrwt>
<pdfrwt beam="1">  1        3 0.10682099E-01 0.19699195E+03</pdfrwt>
<pdfrwt beam="2">  1       -3 0.10223612E+00 0.19699195E+03</pdfrwt>
<totfact> 0.13860428E+02</totfact>
</mgrwt>
</event>
<event>
 8    1  0.6836165E-004  0.9610073E+02  0.7546771E-02  0.1288903E+00
         -1   -1    0    0    0  501 -0.00000000000E+00  0.00000000000E+00  0.16903518939E+03  0.16903518939E+03  0.00000000000E+00 0.  1.
          1   -1    0    0  501    0  0.00000000000E+00 -0.00000000000E+00 -0.57632441154E+02  0.57632441154E+02  0.00000000000E+00 0. -1.
         23    2    1    2    0    0  0.26435592618E+02 -0.99276545819E+01  0.82447149757E+02  0.12662102174E+03  0.91858324400E+02 0.  0.
         23    2    1    2    0    0 -0.26435592618E+02  0.99276545819E+01  0.28955598483E+02  0.10004660881E+03  0.91506821426E+02 0.  0.
          5    1    3    3  502    0 -0.29058170566E+02  0.12343292173E+02  0.12004522365E+02  0.34101799008E+02  0.47000000000E+01 0. -1.
         -5    1    3    3    0  502  0.55493763184E+02 -0.22270946755E+02  0.70442627391E+02  0.92519222735E+02  0.47000000000E+01 0.  1.
          5    1    4    4  503    0 -0.16398291016E+02  0.47839388418E+02  0.32644703422E+02  0.60376135136E+02  0.47000000000E+01 0.  1.
         -5    1    4    4    0  503 -0.10037301602E+02 -0.37911733836E+02 -0.36891049388E+01  0.39670473670E+02  0.47000000000E+01 0. -1.
<mgrwt>
<rscale>  0 0.96016639E+02</rscale>
<asrwt>0</asrwt>
<pdfrwt beam="1">  1        1 0.88665295E-02 0.96100732E+02</pdfrwt>
<pdfrwt beam="2">  1       -1 0.26005414E-01 0.96100732E+02</pdfrwt>
<totfact> 0.89907871E+03</totfact>
</mgrwt>
</event>
<event>
 8    1  0.6836165E-004  0.1171224E+03  0.7546771E-02  0.1248922E+00
         -1   -1    0    0    0  501 -0.00000000000E+00  0.00000000000E+00  0.38417358842E+03  0.38417358842E+03  0.00000000000E+00 0.  1.
          1   -1    0    0  501    0  0.00000000000E+00 -0.00000000000E+00 -0.35861524011E+02  0.35861524011E+02  0.00000000000E+00 0. -1.
         23    2    1    2    0    0 -0.55191854347E+02 -0.49687781883E+02  0.20497237307E+03  0.23492993571E+03  0.87540759174E+02 0.  0.
         23    2    1    2    0    0  0.55191854347E+02  0.49687781883E+02  0.14333969134E+03  0.18510517672E+03  0.90568443072E+02 0.  0.
          5    1    3    3  502    0 -0.65815374940E+02 -0.31707704788E+02  0.81231852972E+02  0.10935147945E+03  0.47000000000E+01 0. -1.
         -5    1    4    4    0  503 -0.24098435881E+02  0.13927876163E+02  0.50110161500E+02  0.57513812531E+02  0.47000000000E+01 0.  1.
          5    1    4    4  503    0  0.79290290228E+02  0.35759905720E+02  0.93229529839E+02  0.12759136419E+03  0.47000000000E+01 0. -1.
         -5    1    3    3    0  502  0.10623520592E+02 -0.17980077096E+02  0.12374052010E+03  0.12557845626E+03  0.47000000000E+01 0.  1.
<mgrwt>
<rscale>  0 0.11653673E+03</rscale>
<asrwt>0</asrwt>
<pdfrwt beam="1">  1        1 0.55171578E-02 0.11712241E+03</pdfrwt>
<pdfrwt beam="2">  1       -1 0.59103626E-01 0.11712241E+03</pdfrwt>
<totfact> 0.41193376E+03</totfact>
</mgrwt>
</event>
<event>
 8    1  0.6836165E-004  0.1028855E+03  0.7546771E-02  0.1275256E+00
         -1   -1    0    0    0  501 -0.00000000000E+00  0.00000000000E+00  0.25780401746E+03  0.25780401746E+03  0.00000000000E+00 0.  1.
          1   -1    0    0  501    0  0.00000000000E+00 -0.00000000000E+00 -0.63372310953E+02  0.63372310953E+02  0.00000000000E+00 0. -1.
         23    2    1    2    0    0 -0.11095147772E+02  0.43502690641E+02 -0.11650425182E+00  0.10109808607E+03  0.90582686181E+02 0.  0.
         23    2    1    2    0    0  0.11095147772E+02 -0.43502690641E+02  0.19454821076E+03  0.22007824235E+03  0.92573430575E+02 0.  0.
          5    1    4    4  502    0  0.45122127994E+02 -0.86677757229E+01  0.13683523860E+03  0.14441990615E+03  0.47000000000E+01 0. -1.
         -5    1    4    4    0  502 -0.34026980222E+02 -0.34834914918E+02  0.57712972163E+02  0.75658336198E+02  0.47000000000E+01 0.  1.
          5    1    3    3  503    0 -0.22542337447E+01  0.68138455111E+02 -0.15915242415E+02  0.70166342186E+02  0.47000000000E+01 0. -1.
         -5    1    3    3    0  503 -0.88409140277E+01 -0.24635764470E+02  0.15798738163E+02  0.30931743879E+02  0.47000000000E+01 0.  1.
<mgrwt>
<rscale>  0 0.10243569E+03</rscale>
<asrwt>0</asrwt>
<pdfrwt beam="1">  1        1 0.97495864E-02 0.10288550E+03</pdfrwt>
<pdfrwt beam="2">  1       -1 0.39662156E-01 0.10288550E+03</pdfrwt>
<totfact> 0.39199202E+03</totfact>
</mgrwt>
</event>
<event>
 8    1  0.6836165E-004  0.9310882E+02  0.7546771E-02  0.1296930E+00
         -2   -1    0    0    0  501 -0.00000000000E+00  0.00000000000E+00  0.51565328383E+02  0.51565328383E+02  0.00000000000E+00 0.  1.
          2   -1    0    0  501    0  0.00000000000E+00 -0.00000000000E+00 -0.21971055681E+03  0.21971055681E+03  0.00000000000E+00 0. -1.
         23    2    1    2    0    0  0.75391132273E+01 -0.15291425608E+02 -0.14776392417E+02  0.91856677060E+02  0.89042918990E+02 0.  0.
         23    2    1    2    0    0 -0.75391132273E+01  0.15291425608E+02 -0.15336883601E+03  0.17941920813E+03  0.91534618929E+02 0.  0.
          5    1    3    3  502    0 -0.38926752181E+02  0.21167867290E+01 -0.14945125290E+02  0.42014516436E+02  0.47000000000E+01 0. -1.
         -5    1    3    3    0  502  0.46465865408E+02 -0.17408212337E+02  0.16873287282E+00  0.49842160624E+02  0.47000000000E+01 0.  1.
          5    1    4    4  503    0  0.26341348407E+02  0.27780757122E+02 -0.13128141421E+03  0.13683032127E+03  0.47000000000E+01 0. -1.
         -5    1    4    4    0  503 -0.33880461635E+02 -0.12489331514E+02 -0.22087421798E+02  0.42588886859E+02  0.47000000000E+01 0.  1.
<mgrwt>
<rscale>  0 0.92490584E+02</rscale>
<asrwt>0</asrwt>
<pdfrwt beam="1">  1        2 0.33801623E-01 0.93108820E+02</pdfrwt>
<pdfrwt beam="2">  1       -2 0.79331276E-02 0.93108820E+02</pdfrwt>
<totfact> 0.13349635E+04</totfact>
</mgrwt>
</event>
<event>
 8    1  0.6836165E-004  0.1120505E+03  0.7546771E-02  0.1257927E+00
          3   -1    0    0  501    0  0.00000000000E+00  0.00000000000E+00  0.21279671718E+02  0.21279671718E+02  0.00000000000E+00 0. -1.
         -3   -1    0    0    0  501 -0.00000000000E+00 -0.00000000000E+00 -0.58019869213E+03  0.58019869213E+03  0.00000000000E+00 0.  1.
         23    2    1    2    0    0  0.10643640379E+02 -0.60874055905E+02 -0.29758608328E+03  0.31713664387E+03  0.90549633682E+02 0.  0.
         23    2    1    2    0    0 -0.10643640379E+02  0.60874055905E+02 -0.26133293713E+03  0.28434171998E+03  0.93468561174E+02 0.  0.
          5    1    3    3  502    0 -0.89839349446E+01 -0.35818011840E+02 -0.30513747885E+02  0.48133355060E+02  0.47000000000E+01 0. -1.
         -5    1    4    4    0  503  0.17393929963E+02 -0.15568794002E+02 -0.10878075109E+03  0.11135653530E+03  0.47000000000E+01 0.  1.
          5    1    4    4  503    0 -0.28037570341E+02  0.76442849907E+02 -0.15255218605E+03  0.17298518468E+03  0.47000000000E+01 0. -1.
         -5    1    3    3    0  502  0.19627575323E+02 -0.25056044064E+02 -0.26707233539E+03  0.26900328881E+03  0.47000000000E+01 0.  1.
<mgrwt>
<rscale>  0 0.11143974E+03</rscale>
<asrwt>0</asrwt>
<pdfrwt beam="1">  1        3 0.32737957E-02 0.11205048E+03</pdfrwt>
<pdfrwt beam="2">  1       -3 0.89261336E-01 0.11205048E+03</pdfrwt>
<totfact> 0.11611204E+03</totfact>
</mgrwt>
</event>
<event>
 8    1  0.6836165E-004  0.9489085E+02  0.7546771E-02  0.1292093E+00
          3   -1    0    0  501    0  0.00000000000E+00  0.00000000000E+00  0.25324664841E+03  0.25324664841E+03  0.00000000000E+00 0. -1.
         -3   -1    0    0    0  501 -0.00000000000E+00 -0.00000000000E+00 -0.37722443447E+02  0.37722443447E+02  0.00000000000E+00 0.  1.
         23    2    1    2    0    0 -0.24457659205E+02  0.19848832227E+02  0.14539014536E+03  0.17297307449E+03  0.88256653558E+02 0.  0.
         23    2    1    2    0    0  0.24457659205E+02 -0.19848832227E+02  0.70134059609E+02  0.11799601737E+03  0.89510449464E+02 0.  0.
          5    1    4    4  502    0  0.47764561789E+02 -0.38304319556E+02  0.31479053987E+02  0.69005036769E+02  0.47000000000E+01 0. -1.
         -5    1    3    3    0  503 -0.41635311822E+02  0.49304725937E+00  0.23022832212E+02  0.47810909730E+02  0.47000000000E+01 0.  1.
          5    1    3    3  503    0  0.17177652618E+02  0.19355784968E+02  0.12236731314E+03  0.12516216476E+03  0.47000000000E+01 0. -1.
         -5    1    4    4    0  502 -0.23306902584E+02  0.18455487329E+02  0.38655005622E+02  0.48990980601E+02  0.47000000000E+01 0.  1.
<mgrwt>
<rscale>  0 0.94594017E+02</rscale>
<asrwt>0</asrwt>
<pdfrwt beam="1">  1        3 0.38961022E-01 0.94890852E+02</pdfrwt>
<pdfrwt beam="2">  1       -3 0.58034530E-02 0.94890852E+02</pdfrwt>
<totfact> 0.25076616E+03</totfact>
</mgrwt>
</event>
<event>
 8    1  0.6836165E-004  0.1106410E+03  0.7546771E-02  0.1259840E+00
         -1   -1    0    0    0  501 -0.00000000000E+00  0.00000000000E+00  0.12215347187E+03  0.12215347187E+03  0.00000000000E+00 0.  1.
          1   -1    0    0  501    0  0.00000000000E+00 -0.00000000000E+00 -0.10235636093E+03  0.10235636093E+03  0.00000000000E+00 0. -1.
         23    2    1    2    0    0  0.57315707175E+02  0.20004614713E+02 -0.93682214428E+01  0.11103688618E+03  0.92499468219E+02 0.  0.
         23    2    1    2    0    0 -0.57315707175E+02 -0.20004614713E+02  0.29165332386E+02  0.11347294662E+03  0.91324794570E+02 0.  0.
          5    1    3    3  502    0  0.39895197181E+02 -0.12218368644E+02 -0.43707387277E+02  0.60608093461E+02  0.47000000000E+01 0. -1.
         -5    1    3    3    0  502  0.17420509994E+02  0.32222983357E+02  0.34339165835E+02  0.50428792719E+02  0.47000000000E+01 0.  1.
          5    1    4    4  503    0 -0.40977715305E+02  0.31959216729E+02  0.27012321358E+02  0.58756448078E+02  0.47000000000E+01 0. -1.
         -5    1    4    4    0  503 -0.16337991870E+02 -0.51963831442E+02  0.21530110274E+01  0.54716498545E+02  0.47000000000E+01 0.  1.
<mgrwt>
<rscale>  0 0.11039512E+03</rscale>
<asrwt>0</asrwt>
<pdfrwt beam="1">  1        1 0.15747132E-01 0.11064098E+03</pdfrwt>
<pdfrwt beam="2">  1       -1 0.18792842E-01 0.11064098E+03</pdfrwt>
<totfact> 0.72675658E+03</totfact>
</mgrwt>
</event>
<event>
 8    1  0.6836165E-004  0.9313444E+02  0.7546771E-02  0.1296233E+00
         -2   -1    0    0    0  501 -0.00000000000E+00  0.00000000000E+00  0.25326958047E+02  0.25326958047E+02  0.00000000000E+00 0.  1.
          2   -1    0    0  501    0  0.00000000000E+00 -0.00000000000E+00 -0.47638590284E+03  0.47638590284E+03  0.00000000000E+00 0. -1.
         23    2    1    2    0    0 -0.22382883052E+01 -0.18512217437E+02 -0.35981117973E+03  0.37132813020E+03  0.89848667694E+02 0.  0.
         23    2    1    2    0    0  0.22382883052E+01  0.18512217437E+02 -0.91247765065E+02  0.13038473069E+03  0.91248623222E+02 0.  0.
          5    1    3    3  502    0  0.45064886212E+01 -0.51600729992E+02 -0.27581904018E+03  0.28067984734E+03  0.47000000000E+01 0. -1.
         -5    1    4    4    0  503  0.45825795908E+02  0.41643884424E+01 -0.37416731090E+02  0.59493255645E+02  0.47000000000E+01 0.  1.
          5    1    4    4  503    0 -0.43587507603E+02  0.14347828995E+02 -0.53831033975E+02  0.70891475049E+02  0.47000000000E+01 0. -1.
         -5    1    3    3    0  502 -0.67447769264E+01  0.33088512555E+02 -0.83992139553E+02  0.90648282861E+02  0.47000000000E+01 0.  1.
<mgrwt>
<rscale>  0 0.92789733E+02</rscale>
<asrwt>0</asrwt>
<pdfrwt beam="1">  1        2 0.73290136E-01 0.93134437E+02</pdfrwt>
<pdfrwt beam="2">  1       -2 0.38964552E-02 0.93134437E+02</pdfrwt>
<totfact> 0.17125638E+04</totfact>
</mgrwt>
</event>
<event>
 8    1  0.6836165E-004  0.3182925E+03  0.7546771E-02  0.1076531E+00
          1   -1    0    0  501    0  0.00000000000E+00  0.00000000000E+00  0.98182714292E+03  0.98182714292E+03  0.00000000000E+00 0. -1.
         -1   -1    0    0    0  501 -0.00000000000E+00 -0.00000000000E+00 -0.10488842127E+03  0.10488842127E+03  0.00000000000E+00 0.  1.
         23    2    1    2    0    0 -0.22058038639E+03 -0.21045011390E+03  0.36358049068E+03  0.48269007993E+03  0.88622698895E+02 0.  0.
         23    2    1    2    0    0  0.22058038639E+03  0.21045011390E+03  0.51335823097E+03  0.60402548425E+03  0.91461221397E+02 0.  0.
          5    1    4    4  502    0  0.80909840358E+02  0.39104778343E+02  0.21151779621E+03  0.22986399037E+03  0.47000000000E+01 0. -1.
         -5    1    4    4    0  502  0.13967054603E+03  0.17134533556E+03  0.30184043476E+03  0.37416149388E+03  0.47000000000E+01 0.  1.
          5    1    3    3  503    0 -0.71987811187E+02 -0.35813920300E+02  0.14499639564E+03  0.16586418117E+03  0.47000000000E+01 0. -1.
         -5    1    3    3    0  503 -0.14859257521E+03 -0.17463619360E+03  0.21858409504E+03  0.31682589876E+03  0.47000000000E+01 0.  1.
<mgrwt>
<rscale>  0 0.31809130E+03</rscale>
<asrwt>0</asrwt>
<pdfrwt beam="1">  1        1 0.15105032E+00 0.31829249E+03</pdfrwt>
<pdfrwt beam="2">  1       -1 0.16136681E-01 0.31829249E+03</pdfrwt>
<totfact> 0.47211643E+02</totfact>
</mgrwt>
</event>
<event>
 8    1  0.6836165E-004  0.1066250E+03  0.7546771E-02  0.1267132E+00
          2   -1    0    0  501    0  0.00000000000E+00  0.00000000000E+00  0.74977650949E+03  0.74977650949E+03  0.00000000000E+00 0. -1.
         -2   -1    0    0    0  501 -0.00000000000E+00 -0.00000000000E+00 -0.24363829661E+02  0.24363829661E+02  0.00000000000E+00 0.  1.
         23    2    1    2    0    0  0.46226676841E+02 -0.26370590788E+02  0.12454996560E+03  0.16395606067E+03  0.92393626341E+02 0.  0.
         23    2    1    2    0    0 -0.46226676841E+02  0.26370590788E+02  0.60086271423E+03  0.61018427848E+03  0.91959440231E+02 0.  0.
          5    1    4    4  502    0 -0.37841048992E+02  0.59854550203E+02  0.37598795340E+03  0.38262715961E+03  0.47000000000E+01 0. -1.
         -5    1    4    4    0  502 -0.83856278487E+01 -0.33483959414E+02  0.22487476083E+03  0.22755711887E+03  0.47000000000E+01 0.  1.
          5    1    3    3  503    0  0.32653980967E+02  0.30591781487E+02  0.35666677408E+02  0.57413774000E+02  0.47000000000E+01 0. -1.
         -5    1    3    3    0  503  0.13572695874E+02 -0.56962372276E+02  0.88883288196E+02  0.10654228667E+03  0.47000000000E+01 0.  1.
<mgrwt>
<rscale>  0 0.10653090E+03</rscale>
<asrwt>0</asrwt>
<pdfrwt beam="1">  1        2 0.11535021E+00 0.10662502E+03</pdfrwt>
<pdfrwt beam="2">  1       -2 0.37482820E-02 0.10662502E+03</pdfrwt>
<totfact> 0.10994610E+04</totfact>
</mgrwt>
</event>
<event>
 8    1  0.6836165E-004  0.9338513E+02  0.7546771E-02  0.1295322E+00
         -2   -1    0    0    0  501 -0.00000000000E+00  0.00000000000E+00  0.18818549993E+03  0.18818549993E+03  0.00000000000E+00 0.  1.
          2   -1    0    0  501    0  0.00000000000E+00 -0.00000000000E+00 -0.52489104369E+02  0.52489104369E+02  0.00000000000E+00 0. -1.
         23    2    1    2    0    0  0.10235534972E+00  0.12224034117E+02  0.25089820963E+02  0.95917577590E+02  0.91767342165E+02 0.  0.
         23    2    1    2    0    0 -0.10235534972E+00 -0.12224034117E+02  0.11060657460E+03  0.14475702671E+03  0.92581558374E+02 0.  0.
          5    1    4    4  502    0  0.34368819048E+02  0.24606216482E+02  0.45878595706E+02  0.62558909488E+02  0.47000000000E+01 0. -1.
         -5    1    4    4    0  502 -0.34471174398E+02 -0.36830250599E+02  0.64727978897E+02  0.82198117226E+02  0.47000000000E+01 0.  1.
          5    1    3    3  503    0 -0.23078482584E+02  0.40470303782E+02  0.34178342898E+02  0.57971639358E+02  0.47000000000E+01 0. -1.
         -5    1    3    3    0  503  0.23180837934E+02 -0.28246269666E+02 -0.90885219341E+01  0.37945938232E+02  0.47000000000E+01 0.  1.
<mgrwt>
<rscale>  0 0.93182685E+02</rscale>
<asrwt>0</asrwt>
<pdfrwt beam="1">  1        2 0.80752470E-02 0.93385130E+02</pdfrwt>
<pdfrwt beam="2">  1       -2 0.28951615E-01 0.93385130E+02</pdfrwt>
<totfact> 0.83409016E+03</totfact>
</mgrwt>
</event>
<event>
 8    1  0.6836165E-004  0.9239484E+02  0.7546771E-02  0.1299251E+00
         -3   -1    0    0    0  501 -0.00000000000E+00  0.00000000000E+00  0.44696484406E+02  0.44696484406E+02  0.00000000000E+00 0.  1.
          3   -1    0    0  501    0  0.00000000000E+00 -0.00000000000E+00 -0.21469721943E+03  0.21469721943E+03  0.00000000000E+00 0. -1.
         23    2    1    2    0    0  0.57668478214E+01 -0.78241519405E+01 -0.13278355718E+03  0.15978484277E+03  0.88347320471E+02 0.  0.
         23    2    1    2    0    0 -0.57668478214E+01  0.78241519405E+01 -0.37217177853E+02  0.99608861073E+02  0.91882169051E+02 0.  0.
          5    1    4    4  502    0 -0.44067646830E+02 -0.81862704959E+01 -0.36221694312E+02  0.57819319095E+02  0.47000000000E+01 0. -1.
         -5    1    4    4    0  502  0.38300799009E+02  0.16010422436E+02 -0.99548354106E+00  0.41789541978E+02  0.47000000000E+01 0.  1.
          5    1    3    3  503    0 -0.31720825459E+02 -0.30141965307E+02 -0.54594002129E+02  0.70123775632E+02  0.47000000000E+01 0. -1.
         -5    1    3    3    0  503  0.37487673281E+02  0.22317813366E+02 -0.78189555047E+02  0.89661067135E+02  0.47000000000E+01 0.  1.
<mgrwt>
<rscale>  0 0.91503410E+02</rscale>
<asrwt>0</asrwt>
<pdfrwt beam="1">  1        3 0.33030341E-01 0.92394842E+02</pdfrwt>
<pdfrwt beam="2">  1       -3 0.68763823E-02 0.92394842E+02</pdfrwt>
<totfact> 0.25979466E+03</totfact>
</mgrwt>
</event>
<event>
 8    1  0.6836165E-004  0.9135288E+02  0.7546771E-02  0.1299618E+00
         -1   -1    0    0    0  501 -0.00000000000E+00  0.00000000000E+00  0.55214747750E+03  0.55214747750E+03  0.00000000000E+00 0.  1.
          1   -1    0    0  501    0  0.00000000000E+00 -0.00000000000E+00 -0.16393568505E+02  0.16393568505E+02  0.00000000000E+00 0. -1.
         23    2    1    2    0    0  0.68653617303E+01  0.14540916065E+01  0.18836437823E+03  0.20934077530E+03  0.91066863586E+02 0.  0.
         23    2    1    2    0    0 -0.68653617303E+01 -0.14540916065E+01  0.34738953077E+03  0.35920027071E+03  0.91082933716E+02 0.  0.
          5    1    4    4  502    0  0.17932263145E+02  0.35802013054E+02  0.22949327542E+03  0.23300773305E+03  0.47000000000E+01 0. -1.
         -5    1    3    3    0  503 -0.38584637986E+02 -0.15795261623E+02  0.98463431592E+02  0.10702991142E+03  0.47000000000E+01 0.  1.
          5    1    3    3  503    0  0.45449999716E+02  0.17249353230E+02  0.89900946635E+02  0.10231086388E+03  0.47000000000E+01 0. -1.
         -5    1    4    4    0  502 -0.24797624876E+02 -0.37256104661E+02  0.11789625535E+03  0.12619253766E+03  0.47000000000E+01 0.  1.
<mgrwt>
<rscale>  0 0.91348872E+02</rscale>
<asrwt>0</asrwt>
<pdfrwt beam="1">  1        1 0.25220879E-02 0.91352878E+02</pdfrwt>
<pdfrwt beam="2">  1       -1 0.84945752E-01 0.91352878E+02</pdfrwt>
<totfact> 0.57674666E+03</totfact>
</mgrwt>
</event>
<event>
 8    1  0.6836165E-004  0.9387642E+02  0.7546771E-02  0.1295909E+00
         -3   -1    0    0    0  501 -0.00000000000E+00  0.00000000000E+00  0.42355972421E+02  0.42355972421E+02  0.00000000000E+00 0.  1.
          3   -1    0    0  501    0  0.00000000000E+00 -0.00000000000E+00 -0.32386685046E+03  0.32386685046E+03  0.00000000000E+00 0. -1.
         23    2    1    2    0    0 -0.32881456544E+01  0.19464569240E+02 -0.25227845874E+03  0.26790031419E+03  0.87957240959E+02 0.  0.
         23    2    1    2    0    0  0.32881456544E+01 -0.19464569240E+02 -0.29232419293E+02  0.98322508693E+02  0.91777448321E+02 0.  0.
          5    1    3    3  502    0  0.24082322915E+02  0.78849645417E+01 -0.22740775788E+03  0.22886351672E+03  0.47000000000E+01 0. -1.
         -5    1    4    4    0  503  0.14204839993E+02 -0.54689711234E+02 -0.17475600227E+02  0.59331514370E+02  0.47000000000E+01 0.  1.
          5    1    4    4  503    0 -0.10916694338E+02  0.35225141994E+02 -0.11756819066E+02  0.38990994323E+02  0.47000000000E+01 0. -1.
         -5    1    3    3    0  502 -0.27370468570E+02  0.11579604698E+02 -0.24870700864E+02  0.39036797463E+02  0.47000000000E+01 0.  1.
<mgrwt>
<rscale>  0 0.92929378E+02</rscale>
<asrwt>0</asrwt>
<pdfrwt beam="1">  1        3 0.49825667E-01 0.93876415E+02</pdfrwt>
<pdfrwt beam="2">  1       -3 0.65163037E-02 0.93876415E+02</pdfrwt>
<totfact> 0.12924703E+03</totfact>
</mgrwt>
</event>
<event>
 8    1  0.6836165E-004  0.1141231E+03  0.7546771E-02  0.1257781E+00
          2   -1    0    0  501    0  0.00000000000E+00  0.00000000000E+00  0.80901069630E+03  0.80901069630E+03  0.00000000000E+00 0. -1.
         -2   -1    0    0    0  501 -0.00000000000E+00 -0.00000000000E+00 -0.51013035426E+02  0.51013035426E+02  0.00000000000E+00 0.  1.
         23    2    1    2    0    0  0.37156665015E+02  0.27444939057E+02  0.21400307807E+02  0.11611229347E+03  0.10435635623E+03 0.  0.
         23    2    1    2    0    0 -0.37156665015E+02 -0.27444939057E+02  0.73659735307E+03  0.74391143826E+03  0.93245509191E+02 0.  0.
          5    1    4    4  502    0 -0.65706802710E+02 -0.27194259679E+02  0.60422915083E+03  0.60841751158E+03  0.47000000000E+01 0. -1.
         -5    1    4    4    0  502  0.28550137695E+02 -0.25067937817E+00  0.13236820224E+03  0.13549392668E+03  0.47000000000E+01 0.  1.
          5    1    3    3  503    0  0.61964166640E+02  0.25045630801E+02  0.45609461138E+02  0.81050320881E+02  0.47000000000E+01 0. -1.
         -5    1    3    3    0  503 -0.24807501625E+02  0.23993082555E+01 -0.24209153331E+02  0.35061972591E+02  0.47000000000E+01 0.  1.
<mgrwt>
<rscale>  0 0.11151972E+03</rscale>
<asrwt>0</asrwt>
<pdfrwt beam="1">  1        2 0.12446317E+00 0.11412314E+03</pdfrwt>
<pdfrwt beam="2">  1       -2 0.78481599E-02 0.11412314E+03</pdfrwt>
<totfact> 0.33164033E+03</totfact>
</mgrwt>
</event>
<event>
 8    1  0.6836165E-004  0.8943887E+02  0.7546771E-02  0.1304997E+00
          4   -1    0    0  501    0  0.00000000000E+00  0.00000000000E+00  0.16750330556E+03  0.16750330556E+03  0.00000000000E+00 0. -1.
         -4   -1    0    0    0  501 -0.00000000000E+00 -0.00000000000E+00 -0.49093939380E+02  0.49093939380E+02  0.00000000000E+00 0.  1.
         23    2    1    2    0    0 -0.90896450709E+01 -0.20493267732E+02  0.81539326347E+02  0.12102880931E+03  0.86583573914E+02 0.  0.
         23    2    1    2    0    0  0.90896450709E+01  0.20493267732E+02  0.36870039832E+02  0.95568435631E+02  0.85272096150E+02 0.  0.
          5    1    4    4  502    0 -0.24581064442E+00 -0.31730798141E+02  0.25810697745E+02  0.41172637657E+02  0.47000000000E+01 0. -1.
         -5    1    3    3    0  503  0.21926132236E+02  0.19849254511E+02  0.71699530702E+01  0.30793609832E+02  0.47000000000E+01 0.  1.
          5    1    3    3  503    0 -0.31015777307E+02 -0.40342522243E+02  0.74369373277E+02  0.90235199476E+02  0.47000000000E+01 0. -1.
         -5    1    4    4    0  502  0.93354557153E+01  0.52224065874E+02  0.11059342087E+02  0.54395797974E+02  0.47000000000E+01 0.  1.
<mgrwt>
<rscale>  0 0.89119916E+02</rscale>
<asrwt>0</asrwt>
<pdfrwt beam="1">  1        4 0.25769739E-01 0.89438867E+02</pdfrwt>
<pdfrwt beam="2">  1       -4 0.75529138E-02 0.89438867E+02</pdfrwt>
<totfact> 0.25418478E+03</totfact>
</mgrwt>
</event>
<event>
 8    1  0.6836165E-004  0.1598727E+03  0.7546771E-02  0.1189067E+00
          1   -1    0    0  501    0  0.00000000000E+00  0.00000000000E+00  0.38822208652E+03  0.38822208652E+03  0.00000000000E+00 0. -1.
         -1   -1    0    0    0  501 -0.00000000000E+00 -0.00000000000E+00 -0.65509115141E+02  0.65509115141E+02  0.00000000000E+00 0.  1.
         23    2    1    2    0    0 -0.12935422448E+03  0.19124615433E+02  0.16197075717E+03  0.22702139710E+03  0.90586545676E+02 0.  0.
         23    2    1    2    0    0  0.12935422448E+03 -0.19124615433E+02  0.16074221421E+03  0.22670980456E+03  0.91983747191E+02 0.  0.
          5    1    3    3  502    0 -0.65071912762E+02 -0.23398229847E+02  0.12140618069E+03  0.13979764555E+03  0.47000000000E+01 0. -1.
         -5    1    3    3    0  502 -0.64282311719E+02  0.42522845280E+02  0.40564576481E+02  0.87223751557E+02  0.47000000000E+01 0.  1.
          5    1    4    4  503    0  0.13006294260E+03 -0.39584104953E+02  0.12241717066E+03  0.18300634983E+03  0.47000000000E+01 0. -1.
         -5    1    4    4    0  503 -0.70871812094E+00  0.20459489520E+02  0.38325043543E+02  0.43703454731E+02  0.47000000000E+01 0.  1.
<mgrwt>
<rscale>  0 0.15967236E+03</rscale>
<asrwt>0</asrwt>
<pdfrwt beam="1">  1        1 0.59726474E-01 0.15987269E+03</pdfrwt>
<pdfrwt beam="2">  1       -1 0.10078326E-01 0.15987269E+03</pdfrwt>
<totfact> 0.36961997E+03</totfact>
</mgrwt>
</event>
<event>
 8    1  0.6836165E-004  0.1004658E+03  0.7546771E-02  0.1284579E+00
          2   -1    0    0  501    0  0.00000000000E+00  0.00000000000E+00  0.67771631490E+03  0.67771631490E+03  0.00000000000E+00 0. -1.
         -2   -1    0    0    0  501 -0.00000000000E+00 -0.00000000000E+00 -0.23821389029E+02  0.23821389029E+02  0.00000000000E+00 0.  1.
         23    2    1    2    0    0 -0.82300256930E+01  0.74711822303E+00  0.10560379089E+03  0.14575849053E+03  0.10012534846E+03 0.  0.
         23    2    1    2    0    0  0.82300256930E+01 -0.74711822303E+00  0.54829113499E+03  0.55577921340E+03  0.90548737348E+02 0.  0.
          5    1    3    3  502    0 -0.34893339818E+02  0.19700326256E+02  0.10523878922E+03  0.11270732352E+03  0.47000000000E+01 0. -1.
         -5    1    3    3    0  502  0.26663314125E+02 -0.18953208033E+02  0.36500167082E+00  0.33051167015E+02  0.47000000000E+01 0.  1.
          5    1    4    4  503    0  0.30053520203E+02 -0.32339229207E+02  0.17719758819E+03  0.18267488903E+03  0.47000000000E+01 0. -1.
         -5    1    4    4    0  503 -0.21823494510E+02  0.31592110984E+02  0.37109354680E+03  0.37310432437E+03  0.47000000000E+01 0.  1.
<mgrwt>
<rscale>  0 0.97990636E+02</rscale>
<asrwt>0</asrwt>
<pdfrwt beam="1">  1        2 0.10426403E+00 0.10046580E+03</pdfrwt>
<pdfrwt beam="2">  1       -2 0.36648296E-02 0.10046580E+03</pdfrwt>
<totfact> 0.12747541E+04</totfact>
</mgrwt>
</event>
<event>
 8    1  0.6836165E-004  0.1134459E+03  0.7546771E-02  0.1255631E+00
         -1   -1    0    0    0  501 -0.00000000000E+00  0.00000000000E+00  0.19889660122E+03  0.19889660122E+03  0.00000000000E+00 0.  1.
          1   -1    0    0  501    0  0.00000000000E+00 -0.00000000000E+00 -0.19205554785E+03  0.19205554785E+03  0.00000000000E+00 0. -1.
         23    2    1    2    0    0  0.61327170720E+02  0.20350521853E+02  0.16360547135E+03  0.19744489497E+03  0.89680380714E+02 0.  0.
         23    2    1    2    0    0 -0.61327170720E+02 -0.20350521853E+02 -0.15676441799E+03  0.19350725411E+03  0.93245959893E+02 0.  0.
          5    1    4    4  502    0 -0.28564330396E+02  0.32703807366E+02 -0.99718993897E+02  0.10886426287E+03  0.47000000000E+01 0. -1.
         -5    1    4    4    0  502 -0.32762840324E+02 -0.53054329220E+02 -0.57045424090E+02  0.84642991232E+02  0.47000000000E+01 0.  1.
          5    1    3    3  503    0  0.16997772497E+02 -0.27135086683E+02  0.15985501316E+02  0.36095199840E+02  0.47000000000E+01 0. -1.
         -5    1    3    3    0  503  0.44329398223E+02  0.47485608536E+02  0.14761997004E+03  0.16134969513E+03  0.47000000000E+01 0.  1.
<mgrwt>
<rscale>  0 0.11271079E+03</rscale>
<asrwt>0</asrwt>
<pdfrwt beam="1">  1        1 0.29547007E-01 0.11344591E+03</pdfrwt>
<pdfrwt beam="2">  1       -1 0.30599477E-01 0.11344591E+03</pdfrwt>
<totfact> 0.14896314E+03</totfact>
</mgrwt>
</event>
<event>
 8    1  0.6836165E-004  0.9352785E+02  0.7546771E-02  0.1294741E+00
         -2   -1    0    0    0  501 -0.00000000000E+00  0.00000000000E+00  0.46458295075E+02  0.46458295075E+02  0.00000000000E+00 0.  1.
          2   -1    0    0  501    0  0.00000000000E+00 -0.00000000000E+00 -0.19767089410E+03  0.19767089410E+03  0.00000000000E+00 0. -1.
         23    2    1    2    0    0  0.12394847589E+02 -0.14127941120E+02 -0.47829114895E+02  0.10471755283E+03  0.91240948437E+02 0.  0.
         23    2    1    2    0    0 -0.12394847589E+02  0.14127941120E+02 -0.10338348413E+03  0.13941163635E+03  0.91620022874E+02 0.  0.
          5    1    4    4  502    0 -0.50435512631E+02  0.64883134211E+01 -0.76482692140E+02  0.91964837533E+02  0.47000000000E+01 0. -1.
         -5    1    3    3    0  503  0.23100877042E+02 -0.49878511037E+02 -0.33004044873E+02  0.64287427708E+02  0.47000000000E+01 0.  1.
          5    1    3    3  503    0 -0.10706029453E+02  0.35750569917E+02 -0.14825070022E+02  0.40430125120E+02  0.47000000000E+01 0. -1.
         -5    1    4    4    0  502  0.38040665043E+02  0.76396276990E+01 -0.26900791994E+02  0.47446798819E+02  0.47000000000E+01 0.  1.
<mgrwt>
<rscale>  0 0.93434888E+02</rscale>
<asrwt>0</asrwt>
<pdfrwt beam="1">  1        2 0.30410906E-01 0.93527854E+02</pdfrwt>
<pdfrwt beam="2">  1       -2 0.71474302E-02 0.93527854E+02</pdfrwt>
<totfact> 0.17519241E+04</totfact>
</mgrwt>
</event>
<event>
 8    1  0.6836165E-004  0.1439543E+03  0.7546771E-02  0.1208123E+00
         -2   -1    0    0    0  501 -0.00000000000E+00  0.00000000000E+00  0.20468793964E+02  0.20468793964E+02  0.00000000000E+00 0.  1.
          2   -1    0    0  501    0  0.00000000000E+00 -0.00000000000E+00 -0.10603038708E+04  0.10603038708E+04  0.00000000000E+00 0. -1.
         23    2    1    2    0    0  0.65092971560E+02 -0.89593085774E+02 -0.40469145816E+03  0.42953233503E+03  0.91971922702E+02 0.  0.
         23    2    1    2    0    0 -0.65092971560E+02  0.89593085774E+02 -0.63514361870E+03  0.65124032976E+03  0.91883267038E+02 0.  0.
          5    1    4    4  502    0 -0.32046125451E+02  0.10078369383E+03 -0.41443120568E+03  0.42773779508E+03  0.47000000000E+01 0. -1.
         -5    1    4    4    0  502 -0.33046846109E+02 -0.11190608052E+02 -0.22071241302E+03  0.22350253468E+03  0.47000000000E+01 0.  1.
          5    1    3    3  503    0 -0.17614576257E+02 -0.32167723797E+02 -0.17229069192E+03  0.17621353034E+03  0.47000000000E+01 0. -1.
         -5    1    3    3    0  503  0.82707547816E+02 -0.57425361977E+02 -0.23240076624E+03  0.25331880470E+03  0.47000000000E+01 0.  1.
<mgrwt>
<rscale>  0 0.14394018E+03</rscale>
<asrwt>0</asrwt>
<pdfrwt beam="1">  1        2 0.16312368E+00 0.14395433E+03</pdfrwt>
<pdfrwt beam="2">  1       -2 0.31490451E-02 0.14395433E+03</pdfrwt>
<totfact> 0.92191242E+03</totfact>
</mgrwt>
</event>
<event>
 8    1  0.6836165E-004  0.1108800E+03  0.7546771E-02  0.1259317E+00
         -2   -1    0    0    0  501 -0.00000000000E+00  0.00000000000E+00  0.23427882388E+02  0.23427882388E+02  0.00000000000E+00 0.  1.
          2   -1    0    0  501    0  0.00000000000E+00 -0.00000000000E+00 -0.57561313447E+03  0.57561313447E+03  0.00000000000E+00 0. -1.
         23    2    1    2    0    0  0.12760184909E+02  0.60109986686E+02 -0.36926089084E+03  0.38554892943E+03  0.92294846346E+02 0.  0.
         23    2    1    2    0    0 -0.12760184909E+02 -0.60109986686E+02 -0.18292436124E+03  0.21349208743E+03  0.91331903738E+02 0.  0.
          5    1    4    4  502    0  0.29561904466E+02 -0.50509301626E+02 -0.64207779426E+02  0.87004739441E+02  0.47000000000E+01 0. -1.
         -5    1    3    3    0  503 -0.14312368903E+01 -0.21591001986E+02 -0.13928704586E+03  0.14103613349E+03  0.47000000000E+01 0.  1.
          5    1    3    3  503    0  0.14191421799E+02  0.81700988672E+02 -0.22997384498E+03  0.24451279594E+03  0.47000000000E+01 0. -1.
         -5    1    4    4    0  502 -0.42322089375E+02 -0.96006850601E+01 -0.11871658182E+03  0.12648734799E+03  0.47000000000E+01 0.  1.
<mgrwt>
<rscale>  0 0.11067938E+03</rscale>
<asrwt>0</asrwt>
<pdfrwt beam="1">  1        2 0.88555864E-01 0.11087999E+03</pdfrwt>
<pdfrwt beam="2">  1       -2 0.36042897E-02 0.11087999E+03</pdfrwt>
<totfact> 0.15859063E+04</totfact>
</mgrwt>
</event>
<event>
 8    1  0.6836165E-004  0.3093126E+03  0.7546771E-02  0.1080676E+00
         -2   -1    0    0    0  501 -0.00000000000E+00  0.00000000000E+00  0.60793502377E+02  0.60793502377E+02  0.00000000000E+00 0.  1.
          2   -1    0    0  501    0  0.00000000000E+00 -0.00000000000E+00 -0.15770858211E+04  0.15770858211E+04  0.00000000000E+00 0. -1.
         23    2    1    2    0    0 -0.29488291358E+03  0.19346723872E+02 -0.72039992685E+03  0.78399638681E+03  0.91345779814E+02 0.  0.
         23    2    1    2    0    0  0.29488291358E+03 -0.19346723872E+02 -0.79589239184E+03  0.85388293663E+03  0.91329850732E+02 0.  0.
          5    1    3    3  502    0 -0.27039533733E+03 -0.61044564660E+01 -0.66737348387E+03  0.72011135237E+03  0.47000000000E+01 0. -1.
         -5    1    3    3    0  502 -0.24487576243E+02  0.25451180338E+02 -0.53026442980E+02  0.63885034444E+02  0.47000000000E+01 0.  1.
          5    1    4    4  503    0  0.32400828432E+02  0.24426967966E+01 -0.19556659831E+03  0.19830321436E+03  0.47000000000E+01 0. -1.
         -5    1    4    4    0  503  0.26248208514E+03 -0.21789420668E+02 -0.60032579353E+03  0.65557972227E+03  0.47000000000E+01 0.  1.
<mgrwt>
<rscale>  0 0.30931142E+03</rscale>
<asrwt>0</asrwt>
<pdfrwt beam="1">  1        2 0.24262854E+00 0.30931259E+03</pdfrwt>
<pdfrwt beam="2">  1       -2 0.93528485E-02 0.30931259E+03</pdfrwt>
<totfact> 0.91474761E+02</totfact>
</mgrwt>
</event>
<event>
 7    1  0.6836165E-004  0.1886178E+03  0.7546771E-02  0.1191303E+00
          2   -1    0    0  501    0  0.00000000000E+00  0.00000000000E+00  0.41726558743E+03  0.41726558743E+03  0.00000000000E+00 0. -1.
         -2   -1    0    0    0  501 -0.00000000000E+00 -0.00000000000E+00 -0.64252639134E+02  0.64252639134E+02  0.00000000000E+00 0.  1.
         23    2    1    2    0    0 -0.10220442287E+01  0.13701308120E+02  0.25031348300E+03  0.26675353579E+03  0.91169285777E+02 0.  0.
          5    1    1    2  502    0 -0.45998591281E+02 -0.96872876247E+01  0.14420247466E+03  0.15174372355E+03  0.47000000000E+01 0. -1.
         -5    1    1    2    0  502  0.47020635510E+02 -0.40140204957E+01 -0.41503009352E+02  0.63020967222E+02  0.47000000000E+01 0.  1.
          5    1    3    3  503    0  0.27929166887E+02 -0.28900501747E+02  0.10771981940E+03  0.11506922636E+03  0.47000000000E+01 0. -1.
         -5    1    3    3    0  503 -0.28951211116E+02  0.42601809867E+02  0.14259366360E+03  0.15168430943E+03  0.47000000000E+01 0.  1.
<mgrwt>
<rscale>  0 0.15771331E+03</rscale>
<asrwt>0</asrwt>
<pdfrwt beam="1">  1        2 0.64194704E-01 0.18861785E+03</pdfrwt>
<pdfrwt beam="2">  1       -2 0.98850216E-02 0.18861785E+03</pdfrwt>
<totfact> 0.50392911E+03</totfact>
</mgrwt>
</event>
<event>
 8    1  0.6836165E-004  0.1068960E+03  0.7546771E-02  0.1267718E+00
          1   -1    0    0  501    0  0.00000000000E+00  0.00000000000E+00  0.90333437785E+03  0.90333437785E+03  0.00000000000E+00 0. -1.
         -1   -1    0    0    0  501 -0.00000000000E+00 -0.00000000000E+00 -0.12584734548E+02  0.12584734548E+02  0.00000000000E+00 0.  1.
         23    2    1    2    0    0  0.52114101277E+02  0.28351351676E+01  0.51489594000E+03  0.52587506223E+03  0.93288983848E+02 0.  0.
         23    2    1    2    0    0 -0.52114101277E+02 -0.28351351676E+01  0.37585370330E+03  0.39004405016E+03  0.90246535888E+02 0.  0.
          5    1    3    3  502    0  0.35257517148E+02  0.42420177591E+02  0.38496881402E+03  0.38892883893E+03  0.47000000000E+01 0. -1.
         -5    1    3    3    0  502  0.16856584129E+02 -0.39585042423E+02  0.12992712598E+03  0.13694622331E+03  0.47000000000E+01 0.  1.
          5    1    4    4  503    0 -0.67586916540E+02 -0.18402908083E+02  0.34390840208E+03  0.35100105033E+03  0.47000000000E+01 0. -1.
         -5    1    4    4    0  503  0.15472815263E+02  0.15567772916E+02  0.31945301220E+02  0.39042999830E+02  0.47000000000E+01 0.  1.
<mgrwt>
<rscale>  0 0.10622862E+03</rscale>
<asrwt>0</asrwt>
<pdfrwt beam="1">  1        1 0.13897447E+00 0.10689599E+03</pdfrwt>
<pdfrwt beam="2">  1       -1 0.19361137E-02 0.10689599E+03</pdfrwt>
<totfact> 0.12863425E+04</totfact>
</mgrwt>
</event>
<event>
 8    1  0.6836165E-004  0.1365135E+03  0.7546771E-02  0.1219313E+00
         -1   -1    0    0    0  501 -0.00000000000E+00  0.00000000000E+00  0.23024518081E+03  0.23024518081E+03  0.00000000000E+00 0.  1.
          1   -1    0    0  501    0  0.00000000000E+00 -0.00000000000E+00 -0.13955939342E+03  0.13955939342E+03  0.00000000000E+00 0. -1.
         23    2    1    2    0    0 -0.21236968907E+02 -0.92983805771E+02 -0.76871394361E+02  0.15367651057E+03  0.92791495551E+02 0.  0.
         23    2    1    2    0    0  0.21236968907E+02  0.92983805771E+02  0.16755718175E+03  0.21612806365E+03  0.97667465197E+02 0.  0.
          5    1    4    4  502    0  0.21954861506E+02  0.60520695922E+02  0.23998500908E+02  0.68867907072E+02  0.47000000000E+01 0. -1.
         -5    1    4    4    0  502 -0.71789259980E+00  0.32463109850E+02  0.14355868084E+03  0.14726015658E+03  0.47000000000E+01 0.  1.
          5    1    3    3  503    0 -0.41553599819E+02 -0.99511751230E+02 -0.75610755838E+02  0.13178909928E+03  0.47000000000E+01 0. -1.
         -5    1    3    3    0  503  0.20316630913E+02  0.65279454583E+01 -0.12606385222E+01  0.21887411291E+02  0.47000000000E+01 0.  1.
<mgrwt>
<rscale>  0 0.13564400E+03</rscale>
<asrwt>0</asrwt>
<pdfrwt beam="1">  1        1 0.21470676E-01 0.13651348E+03</pdfrwt>
<pdfrwt beam="2">  1       -1 0.35422336E-01 0.13651348E+03</pdfrwt>
<totfact> 0.17436243E+03</totfact>
</mgrwt>
</event>
<event>
 8    1  0.6836165E-004  0.1155905E+03  0.7546771E-02  0.1257886E+00
         -2   -1    0    0    0  501 -0.00000000000E+00  0.00000000000E+00  0.13748805183E+03  0.13748805183E+03  0.00000000000E+00 0.  1.
          2   -1    0    0  501    0  0.00000000000E+00 -0.00000000000E+00 -0.87768921787E+02  0.87768921787E+02  0.00000000000E+00 0. -1.
         23    2    1    2    0    0 -0.14885207820E+02 -0.29475312595E+02  0.48380043596E+02  0.12530679159E+03  0.11077364278E+03 0.  0.
         23    2    1    2    0    0  0.14885207820E+02  0.29475312595E+02  0.13390864472E+01  0.99950182029E+02  0.94328586710E+02 0.  0.
          5    1    3    3  502    0  0.40566665841E+02 -0.18492292559E+02 -0.77625752939E+01  0.45496888210E+02  0.47000000000E+01 0. -1.
         -5    1    3    3    0  502 -0.55451873661E+02 -0.10983020036E+02  0.56142618889E+02  0.79809903379E+02  0.47000000000E+01 0.  1.
          5    1    4    4  503    0 -0.38343677432E+01 -0.23867653394E+02  0.27984095134E+02  0.37276894117E+02  0.47000000000E+01 0. -1.
         -5    1    4    4    0  503  0.18719575563E+02  0.53342965989E+02 -0.26645008687E+02  0.62673287912E+02  0.47000000000E+01 0.  1.
<mgrwt>
<rscale>  0 0.11146224E+03</rscale>
<asrwt>0</asrwt>
<pdfrwt beam="1">  1        2 0.13502911E-01 0.11559050E+03</pdfrwt>
<pdfrwt beam="2">  1       -2 0.21152008E-01 0.11559050E+03</pdfrwt>
<totfact> 0.78596454E+03</totfact>
</mgrwt>
</event>
<event>
 8    1  0.6836165E-004  0.8996864E+02  0.7546771E-02  0.1303260E+00
         -1   -1    0    0    0  501 -0.00000000000E+00  0.00000000000E+00  0.11013234125E+02  0.11013234125E+02  0.00000000000E+00 0.  1.
          1   -1    0    0  501    0  0.00000000000E+00 -0.00000000000E+00 -0.94754995540E+03  0.94754995540E+03  0.00000000000E+00 0. -1.
         23    2    1    2    0    0  0.26593066713E+01 -0.15499598838E+01 -0.69875736209E+03  0.70452551965E+03  0.89915974522E+02 0.  0.
         23    2    1    2    0    0 -0.26593066713E+01  0.15499598838E+01 -0.23777935918E+03  0.25403766987E+03  0.89368001956E+02 0.  0.
          5    1    3    3  502    0  0.17122037891E+02 -0.41863508944E+02 -0.29642399555E+03  0.29989163493E+03  0.47000000000E+01 0. -1.
         -5    1    4    4    0  503 -0.29201717093E+01  0.45048728149E+02 -0.11099619170E+03  0.11991730435E+03  0.47000000000E+01 0.  1.
          5    1    4    4  503    0  0.26086503799E+00 -0.43498768265E+02 -0.12678316748E+03  0.13412036552E+03  0.47000000000E+01 0. -1.
         -5    1    3    3    0  502 -0.14462731220E+02  0.40313549060E+02 -0.40233336654E+03  0.40463388472E+03  0.47000000000E+01 0.  1.
<mgrwt>
<rscale>  0 0.89831417E+02</rscale>
<asrwt>0</asrwt>
<pdfrwt beam="1">  1        1 0.14577696E+00 0.89968643E+02</pdfrwt>
<pdfrwt beam="2">  1       -1 0.16943432E-02 0.89968643E+02</pdfrwt>
<totfact> 0.14230387E+04</totfact>
</mgrwt>
</event>
<event>
 8    1  0.6836165E-004  0.9962443E+02  0.7546771E-02  0.1283179E+00
         -2   -1    0    0    0  501 -0.00000000000E+00  0.00000000000E+00  0.87120910975E+02  0.87120910975E+02  0.00000000000E+00 0.  1.
          2   -1    0    0  501    0  0.00000000000E+00 -0.00000000000E+00 -0.23192594626E+03  0.23192594626E+03  0.00000000000E+00 0. -1.
         23    2    1    2    0    0  0.26997113868E+02  0.11561621651E+02  0.44148433437E+02  0.10543871098E+03  0.91135735827E+02 0.  0.
         23    2    1    2    0    0 -0.26997113868E+02 -0.11561621651E+02 -0.18895346872E+03  0.21360814626E+03  0.95197224507E+02 0.  0.
          5    1    4    4  502    0 -0.69394291784E+01 -0.32939200303E+02 -0.17914593856E+03  0.18234172286E+03  0.47000000000E+01 0. -1.
         -5    1    4    4    0  502 -0.20057684690E+02  0.21377578652E+02 -0.98075301627E+01  0.31266423397E+02  0.47000000000E+01 0.  1.
          5    1    3    3  503    0 -0.33382971249E+02  0.53625554039E+00  0.20712603591E+02  0.39570346055E+02  0.47000000000E+01 0. -1.
         -5    1    3    3    0  503  0.60380085118E+02  0.11025366111E+02  0.23435829846E+02  0.65868364920E+02  0.47000000000E+01 0.  1.
<mgrwt>
<rscale>  0 0.98641602E+02</rscale>
<asrwt>0</asrwt>
<pdfrwt beam="1">  1        2 0.35680915E-01 0.99624429E+02</pdfrwt>
<pdfrwt beam="2">  1       -2 0.13403217E-01 0.99624429E+02</pdfrwt>
<totfact> 0.55852295E+03</totfact>
</mgrwt>
</event>
<event>
 8    1  0.6836165E-004  0.1077545E+03  0.7546771E-02  0.1266600E+00
         -2   -1    0    0    0  501 -0.00000000000E+00  0.00000000000E+00  0.48713845143E+02  0.48713845143E+02  0.00000000000E+00 0. -1.
          2   -1    0    0  501    0  0.00000000000E+00 -0.00000000000E+00 -0.24076062342E+03  0.24076062342E+03  0.00000000000E+00 0.  1.
         23    2    1    2    0    0 -0.48592534008E+02 -0.10747657102E+02 -0.12802562097E+03  0.16733674152E+03  0.95573421752E+02 0.  0.
         23    2    1    2    0    0  0.48592534008E+02  0.10747657102E+02 -0.64021157313E+02  0.12213772704E+03  0.91335476617E+02 0.  0.
          5    1    3    3  502    0  0.59826723366E-01  0.25360036827E+02 -0.19049627120E+00  0.25792660505E+02  0.47000000000E+01 0. -1.
         -5    1    3    3    0  502 -0.48652360731E+02 -0.36107693929E+02 -0.12783512470E+03  0.14154408102E+03  0.47000000000E+01 0.  1.
          5    1    4    4  503    0  0.52106448635E+02 -0.31117360110E+02 -0.29943920268E+02  0.67838782791E+02  0.47000000000E+01 0. -1.
         -5    1    4    4    0  503 -0.35139146269E+01  0.41865017212E+02 -0.34077237045E+02  0.54298944251E+02  0.47000000000E+01 0.  1.
<mgrwt>
<rscale>  0 0.10680693E+03</rscale>
<asrwt>0</asrwt>
<pdfrwt beam="1">  1        2 0.37040096E-01 0.10775447E+03</pdfrwt>
<pdfrwt beam="2">  1       -2 0.74944377E-02 0.10775447E+03</pdfrwt>
<totfact> 0.13397240E+04</totfact>
</mgrwt>
</event>
<event>
 8    1  0.6836165E-004  0.1209401E+03  0.7546771E-02  0.1244030E+00
          3   -1    0    0  501    0  0.00000000000E+00  0.00000000000E+00  0.67285755377E+03  0.67285755377E+03  0.00000000000E+00 0. -1.
         -3   -1    0    0    0  501 -0.00000000000E+00 -0.00000000000E+00 -0.33845453378E+02  0.33845453378E+02  0.00000000000E+00 0.  1.
         23    2    1    2    0    0  0.69259026964E+02 -0.18430594382E+02  0.10413427976E+03  0.15959465930E+03  0.97416669156E+02 0.  0.
         23    2    1    2    0    0 -0.69259026964E+02  0.18430594382E+02  0.53487782063E+03  0.54710834785E+03  0.89982007432E+02 0.  0.
          5    1    4    4  502    0 -0.63359358855E+02  0.50928020021E+02  0.36260292161E+03  0.37163293763E+03  0.47000000000E+01 0. -1.
         -5    1    4    4    0  502 -0.58996681089E+01 -0.32497425639E+02  0.17227489903E+03  0.17547541022E+03  0.47000000000E+01 0.  1.
          5    1    3    3  503    0  0.14486899927E+02 -0.52140777774E+02  0.62640337550E+02  0.82912199734E+02  0.47000000000E+01 0. -1.
         -5    1    3    3    0  503  0.54772127037E+02  0.33710183392E+02  0.41493942213E+02  0.76682459564E+02  0.47000000000E+01 0.  1.
<mgrwt>
<rscale>  0 0.11943623E+03</rscale>
<asrwt>0</asrwt>
<pdfrwt beam="1">  1        3 0.10351654E+00 0.12094010E+03</pdfrwt>
<pdfrwt beam="2">  1       -3 0.52069933E-02 0.12094010E+03</pdfrwt>
<totfact> 0.40917280E+02</totfact>
</mgrwt>
</event>
<event>
 8    1  0.6836165E-004  0.1986472E+03  0.7546771E-02  0.1151489E+00
          2   -1    0    0  501    0  0.00000000000E+00  0.00000000000E+00  0.14914753921E+04  0.14914753921E+04  0.00000000000E+00 0. -1.
         -2   -1    0    0    0  501 -0.00000000000E+00 -0.00000000000E+00 -0.26695238544E+02  0.26695238544E+02  0.00000000000E+00 0.  1.
         23    2    1    2    0    0  0.15321750227E+03 -0.86740349918E+02  0.62262428659E+03  0.65354547850E+03  0.91984775470E+02 0.  0.
         23    2    1    2    0    0 -0.15321750227E+03  0.86740349918E+02  0.84215586696E+03  0.86462515213E+03  0.85735979246E+02 0.  0.
          5    1    4    4  502    0 -0.10427538200E+03  0.15734707305E+02  0.54701020832E+03  0.55710249893E+03  0.47000000000E+01 0. -1.
         -5    1    4    4    0  502 -0.48942120273E+02  0.71005642613E+02  0.29514565864E+03  0.30752265320E+03  0.47000000000E+01 0.  1.
          5    1    3    3  503    0  0.35095289228E+02 -0.51119300722E+02  0.33214290469E+03  0.33791398516E+03  0.47000000000E+01 0. -1.
         -5    1    3    3    0  503  0.11812221304E+03 -0.35621049196E+02  0.29048138190E+03  0.31563149334E+03  0.47000000000E+01 0.  1.
<mgrwt>
<rscale>  0 0.19793958E+03</rscale>
<asrwt>0</asrwt>
<pdfrwt beam="1">  1        2 0.22945769E+00 0.19864715E+03</pdfrwt>
<pdfrwt beam="2">  1       -2 0.41069609E-02 0.19864715E+03</pdfrwt>
<totfact> 0.36301532E+03</totfact>
</mgrwt>
</event>
<event>
 8    1  0.6836165E-004  0.9566930E+02  0.7546771E-02  0.1290097E+00
         -1   -1    0    0    0  501 -0.00000000000E+00  0.00000000000E+00  0.36354801192E+02  0.36354801192E+02  0.00000000000E+00 0.  1.
          1   -1    0    0  501    0  0.00000000000E+00 -0.00000000000E+00 -0.28833037372E+03  0.28833037372E+03  0.00000000000E+00 0. -1.
         23    2    1    2    0    0  0.29086965936E+01 -0.22809589879E+02 -0.18491590649E+03  0.20785361384E+03  0.92089599902E+02 0.  0.
         23    2    1    2    0    0 -0.29086965936E+01  0.22809589879E+02 -0.67059666042E+02  0.11683156107E+03  0.92864831587E+02 0.  0.
          5    1    4    4  502    0  0.30914272244E+02 -0.22794832954E+02 -0.26877565728E+02  0.47114649285E+02  0.47000000000E+01 0. -1.
         -5    1    3    3    0  503 -0.40211252297E+02  0.38010942556E+01 -0.11012426292E+03  0.11739180726E+03  0.47000000000E+01 0.  1.
          5    1    3    3  503    0  0.43119948891E+02 -0.26610684135E+02 -0.74791643566E+02  0.90461806581E+02  0.47000000000E+01 0. -1.
         -5    1    4    4    0  502 -0.33822968838E+02  0.45604422834E+02 -0.40182100314E+02  0.69716911784E+02  0.47000000000E+01 0.  1.
<mgrwt>
<rscale>  0 0.95480661E+02</rscale>
<asrwt>0</asrwt>
<pdfrwt beam="1">  1        1 0.44358519E-01 0.95669299E+02</pdfrwt>
<pdfrwt beam="2">  1       -1 0.55930464E-02 0.95669299E+02</pdfrwt>
<totfact> 0.12500287E+04</totfact>
</mgrwt>
</event>
<event>
 8    1  0.6836165E-004  0.1058068E+03  0.7546771E-02  0.1268586E+00
         -2   -1    0    0    0  501 -0.00000000000E+00  0.00000000000E+00  0.19692704754E+03  0.19692704754E+03  0.00000000000E+00 0.  1.
          2   -1    0    0  501    0  0.00000000000E+00 -0.00000000000E+00 -0.62129378461E+02  0.62129378461E+02  0.00000000000E+00 0. -1.
         23    2    1    2    0    0  0.37119496897E+02  0.34690278120E+02  0.29478613410E+02  0.10983657092E+03  0.92810620171E+02 0.  0.
         23    2    1    2    0    0 -0.37119496897E+02 -0.34690278120E+02  0.10531905567E+03  0.14921985508E+03  0.92699456407E+02 0.  0.
          5    1    3    3  502    0  0.34901055692E+02 -0.88653799922E+01 -0.21800346521E+02  0.42355917641E+02  0.47000000000E+01 0. -1.
         -5    1    4    4    0  503 -0.11078527770E+02  0.23902674523E+02  0.71989986288E+02  0.76803123326E+02  0.47000000000E+01 0.  1.
          5    1    4    4  503    0 -0.26040969127E+02 -0.58592952643E+02  0.33329069378E+02  0.72416731755E+02  0.47000000000E+01 0. -1.
         -5    1    3    3    0  502  0.22184412049E+01  0.43555658112E+02  0.51278959931E+02  0.67480653276E+02  0.47000000000E+01 0.  1.
<mgrwt>
<rscale>  0 0.10578244E+03</rscale>
<asrwt>0</asrwt>
<pdfrwt beam="1">  1        2 0.95583660E-02 0.10580682E+03</pdfrwt>
<pdfrwt beam="2">  1       -2 0.30296468E-01 0.10580682E+03</pdfrwt>
<totfact> 0.63193149E+03</totfact>
</mgrwt>
</event>
<event>
 8    1  0.6836165E-004  0.2374499E+03  0.7546771E-02  0.1121679E+00
          4   -1    0    0  501    0  0.00000000000E+00  0.00000000000E+00  0.39834818829E+02  0.39834818829E+02  0.00000000000E+00 0. -1.
         -4   -1    0    0    0  501 -0.00000000000E+00 -0.00000000000E+00 -0.14100036424E+04  0.14100036424E+04  0.00000000000E+00 0.  1.
         23    2    1    2    0    0  0.13010112208E+03  0.17560753033E+03 -0.70343339843E+03  0.74242913710E+03  0.92834104230E+02 0.  0.
         23    2    1    2    0    0 -0.13010112208E+03 -0.17560753033E+03 -0.66673542513E+03  0.70740932412E+03  0.90152748450E+02 0.  0.
          5    1    3    3  502    0  0.10153402063E+03  0.66329600707E+02 -0.30479823520E+03  0.32807442365E+03  0.47000000000E+01 0. -1.
         -5    1    3    3    0  502  0.28567101450E+02  0.10927792963E+03 -0.39863516323E+03  0.41435471345E+03  0.47000000000E+01 0.  1.
          5    1    4    4  503    0 -0.64638737306E+02 -0.68502648728E+02 -0.16362342063E+03  0.18885309905E+03  0.47000000000E+01 0. -1.
         -5    1    4    4    0  503 -0.65462384774E+02 -0.10710488161E+03 -0.50311200450E+03  0.51855622507E+03  0.47000000000E+01 0.  1.
<mgrwt>
<rscale>  0 0.23719067E+03</rscale>
<asrwt>0</asrwt>
<pdfrwt beam="1">  1        4 0.61284335E-02 0.23744995E+03</pdfrwt>
<pdfrwt beam="2">  1       -4 0.21692364E+00 0.23744995E+03</pdfrwt>
<totfact> 0.35306655E+01</totfact>
</mgrwt>
</event>
<event>
 8    1  0.6836165E-004  0.1097691E+03  0.7546771E-02  0.1262809E+00
         -1   -1    0    0    0  501 -0.00000000000E+00  0.00000000000E+00  0.47228072298E+02  0.47228072298E+02  0.00000000000E+00 0.  1.
          1   -1    0    0  501    0  0.00000000000E+00 -0.00000000000E+00 -0.24725990601E+03  0.24725990601E+03  0.00000000000E+00 0. -1.
         23    2    1    2    0    0  0.59715687359E+02  0.65501100610E+01 -0.92669959050E+02  0.14365576550E+03  0.91871597312E+02 0.  0.
         23    2    1    2    0    0 -0.59715687359E+02 -0.65501100610E+01 -0.10736187466E+03  0.15083221280E+03  0.87263491967E+02 0.  0.
          5    1    4    4  502    0 -0.72383214492E+01  0.34324398997E+02 -0.19117669679E+02  0.40226023392E+02  0.47000000000E+01 0. -1.
         -5    1    4    4    0  502 -0.52477365910E+02 -0.40874509059E+02 -0.88244204980E+02  0.11060618941E+03  0.47000000000E+01 0.  1.
          5    1    3    3  503    0  0.60766223027E+02  0.41957980550E+02 -0.64326203253E+02  0.98045685360E+02  0.47000000000E+01 0. -1.
         -5    1    3    3    0  503 -0.10505356672E+01 -0.35407870489E+02 -0.28343755797E+02  0.45610080141E+02  0.47000000000E+01 0.  1.
<mgrwt>
<rscale>  0 0.10879966E+03</rscale>
<asrwt>0</asrwt>
<pdfrwt beam="1">  1        1 0.38039986E-01 0.10976911E+03</pdfrwt>
<pdfrwt beam="2">  1       -1 0.72658572E-02 0.10976911E+03</pdfrwt>
<totfact> 0.10362815E+04</totfact>
</mgrwt>
</event>
<event>
 8    1  0.6836165E-004  0.1003888E+03  0.7546771E-02  0.1286373E+00
         -2   -1    0    0    0  501 -0.00000000000E+00  0.00000000000E+00  0.20249749047E+02  0.20249749047E+02  0.00000000000E+00 0.  1.
          2   -1    0    0  501    0  0.00000000000E+00 -0.00000000000E+00 -0.52105582731E+03  0.52105582731E+03  0.00000000000E+00 0. -1.
         23    2    1    2    0    0  0.51964926522E+01 -0.40421923731E+02 -0.15668894451E+03  0.18608958905E+03  0.91744069921E+02 0.  0.
         23    2    1    2    0    0 -0.51964926522E+01  0.40421923731E+02 -0.34411713375E+03  0.35521598731E+03  0.78108005001E+02 0.  0.
          5    1    4    4  502    0  0.10070889703E+02  0.56909645398E+02 -0.17055673601E+03  0.18014388903E+03  0.47000000000E+01 0. -1.
         -5    1    3    3    0  503  0.36117099676E+02 -0.30728758047E+02 -0.32559243205E+02  0.57713913212E+02  0.47000000000E+01 0.  1.
          5    1    3    3  503    0 -0.30920607024E+02 -0.96931656843E+01 -0.12412970131E+03  0.12837567584E+03  0.47000000000E+01 0. -1.
         -5    1    4    4    0  502 -0.15267382355E+02 -0.16487721667E+02 -0.17356039775E+03  0.17507209828E+03  0.47000000000E+01 0.  1.
<mgrwt>
<rscale>  0 0.97164854E+02</rscale>
<asrwt>0</asrwt>
<pdfrwt beam="1">  1        2 0.80162452E-01 0.10038879E+03</pdfrwt>
<pdfrwt beam="2">  1       -2 0.31153454E-02 0.10038879E+03</pdfrwt>
<totfact> 0.21722414E+04</totfact>
</mgrwt>
</event>
<event>
 8    1  0.6836165E-004  0.1003557E+03  0.7546771E-02  0.1279677E+00
         -2   -1    0    0    0  501 -0.00000000000E+00  0.00000000000E+00  0.12133928871E+02  0.12133928871E+02  0.00000000000E+00 0.  1.
          2   -1    0    0  501    0  0.00000000000E+00 -0.00000000000E+00 -0.86654531355E+03  0.86654531355E+03  0.00000000000E+00 0. -1.
         23    2    1    2    0    0  0.26389878358E+02 -0.32076678882E+02 -0.51937606107E+03  0.52893658302E+03  0.91088292585E+02 0.  0.
         23    2    1    2    0    0 -0.26389878358E+02  0.32076678882E+02 -0.33503532361E+03  0.34974265940E+03  0.91356010886E+02 0.  0.
          5    1    3    3  502    0  0.37251480272E+02 -0.57448808184E+02 -0.42464077329E+03  0.43015103706E+03  0.47000000000E+01 0. -1.
         -5    1    4    4    0  503 -0.52409626534E+02  0.20472681410E+02 -0.29515139132E+03  0.30050346660E+03  0.47000000000E+01 0.  1.
          5    1    4    4  503    0  0.26019748176E+02  0.11603997471E+02 -0.39883932290E+02  0.49239192798E+02  0.47000000000E+01 0. -1.
         -5    1    3    3    0  502 -0.10861601914E+02  0.25372129302E+02 -0.94735287778E+02  0.98785545966E+02  0.47000000000E+01 0.  1.
<mgrwt>
<rscale>  0 0.10029470E+03</rscale>
<asrwt>0</asrwt>
<pdfrwt beam="1">  1        2 0.13331469E+00 0.10035567E+03</pdfrwt>
<pdfrwt beam="2">  1       -2 0.18667579E-02 0.10035567E+03</pdfrwt>
<totfact> 0.25214741E+04</totfact>
</mgrwt>
</event>
<event>
 8    1  0.6836165E-004  0.1161398E+03  0.7546771E-02  0.1250666E+00
          3   -1    0    0  501    0  0.00000000000E+00  0.00000000000E+00  0.10004030632E+03  0.10004030632E+03  0.00000000000E+00 0. -1.
         -3   -1    0    0    0  501 -0.00000000000E+00 -0.00000000000E+00 -0.15177249701E+03  0.15177249701E+03  0.00000000000E+00 0.  1.
         23    2    1    2    0    0 -0.47034067999E+02  0.50776272881E+02 -0.71527914912E+02  0.13639903246E+03  0.93263176032E+02 0.  0.
         23    2    1    2    0    0  0.47034067999E+02 -0.50776272881E+02  0.19795724224E+02  0.11541377087E+03  0.90211054576E+02 0.  0.
          5    1    3    3  502    0 -0.35272449951E+02 -0.22039886313E+02 -0.20672783862E+02  0.46683576415E+02  0.47000000000E+01 0. -1.
         -5    1    3    3    0  502 -0.11761618047E+02  0.72816159194E+02 -0.50855131051E+02  0.89715456043E+02  0.47000000000E+01 0.  1.
          5    1    4    4  503    0 -0.10378405155E+02 -0.35834961608E+02  0.37721216338E+02  0.53261955738E+02  0.47000000000E+01 0. -1.
         -5    1    4    4    0  503  0.57412473154E+02 -0.14941311273E+02 -0.17925492114E+02  0.62151815128E+02  0.47000000000E+01 0.  1.
<mgrwt>
<rscale>  0 0.11552585E+03</rscale>
<asrwt>0</asrwt>
<pdfrwt beam="1">  1        3 0.15390816E-01 0.11613980E+03</pdfrwt>
<pdfrwt beam="2">  1       -3 0.23349615E-01 0.11613980E+03</pdfrwt>
<totfact> 0.13520941E+03</totfact>
</mgrwt>
</event>
<event>
 8    1  0.6836165E-004  0.9928549E+02  0.7546771E-02  0.1283229E+00
          2   -1    0    0  501    0  0.00000000000E+00  0.00000000000E+00  0.58559132225E+03  0.58559132225E+03  0.00000000000E+00 0. -1.
         -2   -1    0    0    0  501 -0.00000000000E+00 -0.00000000000E+00 -0.25476859320E+02  0.25476859320E+02  0.00000000000E+00 0.  1.
         23    2    1    2    0    0  0.37009283056E+02  0.74923961011E+01  0.95150124289E+02  0.13562160735E+03  0.88959829117E+02 0.  0.
         23    2    1    2    0    0 -0.37009283056E+02 -0.74923961011E+01  0.46496433864E+03  0.47544657422E+03  0.91824755368E+02 0.  0.
          5    1    3    3  502    0 -0.17876497903E+02  0.20871827265E+02  0.66493639397E+02  0.72101986318E+02  0.47000000000E+01 0. -1.
         -5    1    3    3    0  502  0.54885780959E+02 -0.13379431164E+02  0.28656484892E+02  0.63519621033E+02  0.47000000000E+01 0.  1.
          5    1    4    4  503    0 -0.19149295338E+01 -0.46047933159E+02  0.24476650296E+03  0.24911204321E+03  0.47000000000E+01 0.  1.
         -5    1    4    4    0  503 -0.35094353522E+02  0.38555537058E+02  0.22019783568E+03  0.22633453100E+03  0.47000000000E+01 0. -1.
<mgrwt>
<rscale>  0 0.98617913E+02</rscale>
<asrwt>0</asrwt>
<pdfrwt beam="1">  1        2 0.90090963E-01 0.99285491E+02</pdfrwt>
<pdfrwt beam="2">  1       -2 0.39195172E-02 0.99285491E+02</pdfrwt>
<totfact> 0.13623455E+04</totfact>
</mgrwt>
</event>
<event>
 8    1  0.6836165E-004  0.1333860E+03  0.7546771E-02  0.1223234E+00
          2   -1    0    0  501    0  0.00000000000E+00  0.00000000000E+00  0.12978984740E+04  0.12978984740E+04  0.00000000000E+00 0. -1.
         -2   -1    0    0    0  501 -0.00000000000E+00 -0.00000000000E+00 -0.14983628002E+02  0.14983628002E+02  0.00000000000E+00 0.  1.
         23    2    1    2    0    0 -0.26565695799E+02 -0.90782630918E+02  0.85201641968E+03  0.86239422031E+03  0.94045677993E+02 0.  0.
         23    2    1    2    0    0  0.26565695799E+02  0.90782630918E+02  0.43089842635E+03  0.45048788173E+03  0.91206663572E+02 0.  0.
          5    1    4    4  502    0 -0.36779636825E+01  0.96818630961E+02  0.36349121909E+03  0.37621181676E+03  0.47000000000E+01 0.  1.
         -5    1    3    3    0  503  0.32049704684E+02 -0.45548568247E+02  0.27453118612E+03  0.28016302003E+03  0.47000000000E+01 0.  1.
          5    1    3    3  503    0 -0.58615400483E+02 -0.45234062671E+02  0.57748523357E+03  0.58223120029E+03  0.47000000000E+01 0. -1.
         -5    1    4    4    0  502  0.30243659481E+02 -0.60360000422E+01  0.67407207263E+02  0.74276064963E+02  0.47000000000E+01 0. -1.
<mgrwt>
<rscale>  0 0.13288659E+03</rscale>
<asrwt>0</asrwt>
<pdfrwt beam="1">  1        2 0.19967660E+00 0.13338595E+03</pdfrwt>
<pdfrwt beam="2">  1       -2 0.23051746E-02 0.13338595E+03</pdfrwt>
<totfact> 0.10686621E+04</totfact>
</mgrwt>
</event>
<event>
 8    1  0.6836165E-004  0.1029208E+03  0.7546771E-02  0.1275169E+00
          2   -1    0    0  501    0  0.00000000000E+00  0.00000000000E+00  0.38033886092E+03  0.38033886092E+03  0.00000000000E+00 0. -1.
         -2   -1    0    0    0  501 -0.00000000000E+00 -0.00000000000E+00 -0.30656570721E+02  0.30656570721E+02  0.00000000000E+00 0.  1.
         23    2    1    2    0    0 -0.69924690639E+01  0.46066359128E+02  0.24070786363E+03  0.26110175562E+03  0.89793357816E+02 0.  0.
         23    2    1    2    0    0  0.69924690639E+01 -0.46066359128E+02  0.10897442657E+03  0.14989367602E+03  0.91769735739E+02 0.  0.
          5    1    3    3  502    0 -0.26653264438E+02 -0.18799120475E+02  0.87734020640E+02  0.93718471037E+02  0.47000000000E+01 0. -1.
         -5    1    3    3    0  502  0.19660795374E+02  0.64865479603E+02  0.15297384299E+03  0.16738328458E+03  0.47000000000E+01 0.  1.
          5    1    4    4  503    0 -0.38562115166E+02 -0.34040185065E+02  0.36207862543E+02  0.63078286560E+02  0.47000000000E+01 0. -1.
         -5    1    4    4    0  503  0.45554584230E+02 -0.12026174062E+02  0.72766564024E+02  0.86815389458E+02  0.47000000000E+01 0.  1.
<mgrwt>
<rscale>  0 0.10247837E+03</rscale>
<asrwt>0</asrwt>
<pdfrwt beam="1">  1        2 0.58513668E-01 0.10292079E+03</pdfrwt>
<pdfrwt beam="2">  1       -2 0.47163958E-02 0.10292079E+03</pdfrwt>
<totfact> 0.16559361E+04</totfact>
</mgrwt>
</event>
<event>
 8    1  0.6836165E-004  0.1140075E+03  0.7546771E-02  0.1254800E+00
         -1   -1    0    0    0  501 -0.00000000000E+00  0.00000000000E+00  0.24053465431E+02  0.24053465431E+02  0.00000000000E+00 0.  1.
          1   -1    0    0  501    0  0.00000000000E+00 -0.00000000000E+00 -0.10030877081E+04  0.10030877081E+04  0.00000000000E+00 0. -1.
         23    2    1    2    0    0 -0.48451346880E+02  0.45136060610E+02 -0.84784836593E+03  0.85547913493E+03  0.92805720297E+02 0.  0.
         23    2    1    2    0    0  0.48451346880E+02 -0.45136060610E+02 -0.13118587677E+03  0.17166203862E+03  0.88731754512E+02 0.  0.
          5    1    4    4  502    0 -0.96905266495E+01  0.19591068212E+02 -0.37976168970E+02  0.44068079946E+02  0.47000000000E+01 0. -1.
         -5    1    3    3    0  503 -0.18330223617E+02 -0.23731458645E+02 -0.12138523303E+03  0.12512251606E+03  0.47000000000E+01 0.  1.
          5    1    3    3  503    0 -0.30121123263E+02  0.68867519255E+02 -0.72646313290E+03  0.73035661887E+03  0.47000000000E+01 0. -1.
         -5    1    4    4    0  502  0.58141873529E+02 -0.64727128822E+02 -0.93209707798E+02  0.12759395868E+03  0.47000000000E+01 0.  1.
<mgrwt>
<rscale>  0 0.11317563E+03</rscale>
<asrwt>0</asrwt>
<pdfrwt beam="1">  1        1 0.15432123E+00 0.11400745E+03</pdfrwt>
<pdfrwt beam="2">  1       -1 0.37005321E-02 0.11400745E+03</pdfrwt>
<totfact> 0.42713196E+03</totfact>
</mgrwt>
</event>
<event>
 8    1  0.6836165E-004  0.9528927E+02  0.7546771E-02  0.1291290E+00
         -1   -1    0    0    0  501 -0.00000000000E+00  0.00000000000E+00  0.12754115829E+02  0.12754115829E+02  0.00000000000E+00 0.  1.
          1   -1    0    0  501    0  0.00000000000E+00 -0.00000000000E+00 -0.70798571110E+03  0.70798571110E+03  0.00000000000E+00 0. -1.
         23    2    1    2    0    0  0.25619856002E+02  0.69131101160E+01 -0.38359210789E+03  0.39525048985E+03  0.91519814135E+02 0.  0.
         23    2    1    2    0    0 -0.25619856002E+02 -0.69131101160E+01 -0.31163948738E+03  0.32548933708E+03  0.90110878053E+02 0.  0.
          5    1    4    4  502    0  0.22175618818E+02 -0.10410135052E+02 -0.22490871387E+03  0.22628775609E+03  0.47000000000E+01 0. -1.
         -5    1    3    3    0  503  0.40551989275E+02  0.40814119975E+02 -0.21956323993E+03  0.22702502627E+03  0.47000000000E+01 0.  1.
          5    1    3    3  503    0 -0.14932133274E+02 -0.33901009859E+02 -0.16402886796E+03  0.16822546358E+03  0.47000000000E+01 0. -1.
         -5    1    4    4    0  502 -0.47795474820E+02  0.34970249359E+01 -0.86730773510E+02  0.99201580987E+02  0.47000000000E+01 0.  1.
<mgrwt>
<rscale>  0 0.94949358E+02</rscale>
<asrwt>0</asrwt>
<pdfrwt beam="1">  1        1 0.10892085E+00 0.95289267E+02</pdfrwt>
<pdfrwt beam="2">  1       -1 0.19621721E-02 0.95289267E+02</pdfrwt>
<totfact> 0.17979930E+04</totfact>
</mgrwt>
</event>
<event>
 8    1  0.6836165E-004  0.9374007E+02  0.7546771E-02  0.1313308E+00
         -1   -1    0    0    0  501 -0.00000000000E+00  0.00000000000E+00  0.13505724771E+03  0.13505724771E+03  0.00000000000E+00 0.  1.
          1   -1    0    0  501    0  0.00000000000E+00 -0.00000000000E+00 -0.14885714465E+03  0.14885714465E+03  0.00000000000E+00 0. -1.
         23    2    1    2    0    0 -0.85141967907E+00  0.14716833917E+02  0.10949381435E+03  0.14413915387E+03  0.92573701356E+02 0.  0.
         23    2    1    2    0    0  0.85141967907E+00 -0.14716833917E+02 -0.12329371129E+03  0.13977523849E+03  0.64175290701E+02 0.  0.
          5    1    4    4  502    0  0.28884070228E+02  0.54273629991E+01 -0.70472605953E+02  0.76499829881E+02  0.47000000000E+01 0.  1.
         -5    1    4    4    0  502 -0.28032650549E+02 -0.20144196917E+02 -0.52821105335E+02  0.63275408612E+02  0.47000000000E+01 0. -1.
          5    1    3    3  503    0 -0.71585116899E+01 -0.27083232585E+02  0.19290790588E+01  0.28470284910E+02  0.47000000000E+01 0. -1.
         -5    1    3    3    0  503  0.63070920109E+01  0.41800066502E+02  0.10756473529E+03  0.11566886896E+03  0.47000000000E+01 0.  1.
<mgrwt>
<rscale>  0 0.85817790E+02</rscale>
<asrwt>0</asrwt>
<pdfrwt beam="1">  1        1 0.22901099E-01 0.93740068E+02</pdfrwt>
<pdfrwt beam="2">  1       -1 0.20778038E-01 0.93740068E+02</pdfrwt>
<totfact> 0.38119680E+03</totfact>
</mgrwt>
</event>
<event>
 8    1  0.6836165E-004  0.1791831E+03  0.7546771E-02  0.1168623E+00
          2   -1    0    0  501    0  0.00000000000E+00  0.00000000000E+00  0.19141259026E+04  0.19141259026E+04  0.00000000000E+00 0. -1.
         -2   -1    0    0    0  501 -0.00000000000E+00 -0.00000000000E+00 -0.18230155523E+02  0.18230155523E+02  0.00000000000E+00 0.  1.
         23    2    1    2    0    0  0.12921206861E+03  0.84277777624E+02  0.67358446640E+03  0.69698102874E+03  0.90928645530E+02 0.  0.
         23    2    1    2    0    0 -0.12921206861E+03 -0.84277777624E+02  0.12223112807E+04  0.12353750294E+04  0.91148745829E+02 0.  0.
          5    1    3    3  502    0  0.73986196840E+02  0.12792225003E+02  0.44202012366E+03  0.44837649142E+03  0.47000000000E+01 0. -1.
         -5    1    3    3    0  502  0.55225871769E+02  0.71485552621E+02  0.23156434274E+03  0.24860453732E+03  0.47000000000E+01 0.  1.
          5    1    4    4  503    0 -0.30543744027E+02 -0.72933071294E+02  0.59016669293E+03  0.59545862042E+03  0.47000000000E+01 0. -1.
         -5    1    4    4    0  503 -0.98668324582E+02 -0.11344706330E+02  0.63214458773E+03  0.63991640894E+03  0.47000000000E+01 0.  1.
<mgrwt>
<rscale>  0 0.17915516E+03</rscale>
<asrwt>0</asrwt>
<pdfrwt beam="1">  1        2 0.29448075E+00 0.17918314E+03</pdfrwt>
<pdfrwt beam="2">  1       -2 0.28046408E-02 0.17918314E+03</pdfrwt>
<totfact> 0.38547815E+03</totfact>
</mgrwt>
</event>
<event>
 8    1  0.6836165E-004  0.1351190E+03  0.7546771E-02  0.1220661E+00
         -2   -1    0    0    0  501 -0.00000000000E+00  0.00000000000E+00  0.15316017729E+02  0.15316017729E+02  0.00000000000E+00 0.  1.
          2   -1    0    0  501    0  0.00000000000E+00 -0.00000000000E+00 -0.13405585465E+04  0.13405585465E+04  0.00000000000E+00 0. -1.
         23    2    1    2    0    0 -0.85907149882E+02 -0.45982492336E+02 -0.89574066401E+03  0.90562020039E+03  0.91116311301E+02 0.  0.
         23    2    1    2    0    0  0.85907149882E+02  0.45982492336E+02 -0.42950186477E+03  0.45025436385E+03  0.93609360236E+02 0.  0.
          5    1    3    3  502    0  0.12195054705E+02 -0.25022380419E+02 -0.11343741906E+03  0.11689729220E+03  0.47000000000E+01 0. -1.
         -5    1    3    3    0  502 -0.98102204587E+02 -0.20960111917E+02 -0.78230324495E+03  0.78872290819E+03  0.47000000000E+01 0.  1.
          5    1    4    4  503    0  0.28979237234E+02 -0.42287076429E+01 -0.28875152285E+03  0.29027092536E+03  0.47000000000E+01 0. -1.
         -5    1    4    4    0  503  0.56927912648E+02  0.50211199979E+02 -0.14075034191E+03  0.15998343849E+03  0.47000000000E+01 0.  1.
<mgrwt>
<rscale>  0 0.13468817E+03</rscale>
<asrwt>0</asrwt>
<pdfrwt beam="1">  1        2 0.20623974E+00 0.13511899E+03</pdfrwt>
<pdfrwt beam="2">  1       -2 0.23563109E-02 0.13511899E+03</pdfrwt>
<totfact> 0.98248696E+03</totfact>
</mgrwt>
</event>
<event>
 8    1  0.6836165E-004  0.1566418E+03  0.7546771E-02  0.1193123E+00
         -2   -1    0    0    0  501 -0.00000000000E+00  0.00000000000E+00  0.29873840591E+02  0.29873840591E+02  0.00000000000E+00 0.  1.
          2   -1    0    0  501    0  0.00000000000E+00 -0.00000000000E+00 -0.86765310302E+03  0.86765310302E+03  0.00000000000E+00 0. -1.
         23    2    1    2    0    0 -0.30802955919E+02 -0.12110768437E+03 -0.53612314015E+03  0.55853797788E+03  0.94449764576E+02 0.  0.
         23    2    1    2    0    0  0.30802955919E+02  0.12110768437E+03 -0.30165612228E+03  0.33898896572E+03  0.91110973377E+02 0.  0.
          5    1    4    4  502    0  0.53111820225E+01  0.12358112738E+03 -0.27574382684E+03  0.30225362155E+03  0.47000000000E+01 0. -1.
         -5    1    4    4    0  502  0.25491773896E+02 -0.24734430168E+01 -0.25912295434E+02  0.36735344172E+02  0.47000000000E+01 0.  1.
          5    1    3    3  503    0 -0.21070448180E+02  0.42548389126E+01 -0.16952448336E+03  0.17094650596E+03  0.47000000000E+01 0. -1.
         -5    1    3    3    0  503 -0.97325077386E+01 -0.12536252328E+03 -0.36659865679E+03  0.38759147193E+03  0.47000000000E+01 0.  1.
<mgrwt>
<rscale>  0 0.15614184E+03</rscale>
<asrwt>0</asrwt>
<pdfrwt beam="1">  1        2 0.13348510E+00 0.15664179E+03</pdfrwt>
<pdfrwt beam="2">  1       -2 0.45959753E-02 0.15664179E+03</pdfrwt>
<totfact> 0.69225846E+03</totfact>
</mgrwt>
</event>
<event>
 8    1  0.6836165E-004  0.1030001E+03  0.7546771E-02  0.1274267E+00
         -2   -1    0    0    0  501 -0.00000000000E+00  0.00000000000E+00  0.57674305371E+02  0.57674305371E+02  0.00000000000E+00 0. -1.
          2   -1    0    0  501    0  0.00000000000E+00 -0.00000000000E+00 -0.18947375880E+03  0.18947375880E+03  0.00000000000E+00 0.  1.
         23    2    1    2    0    0  0.49733500957E+02 -0.33505192371E+01 -0.88127581748E+02  0.13555625440E+03  0.90135344597E+02 0.  0.
         23    2    1    2    0    0 -0.49733500957E+02  0.33505192371E+01 -0.43671871682E+02  0.11159180977E+03  0.89782250670E+02 0.  0.
          5    1    4    4  502    0 -0.12341409065E+01 -0.33324284985E+02  0.43657149140E+01  0.33958512044E+02  0.47000000000E+01 0. -1.
         -5    1    3    3    0  503  0.56434301245E+02  0.28973365147E+02 -0.34384428719E+02  0.72309509632E+02  0.47000000000E+01 0.  1.
          5    1    3    3  503    0 -0.67008002876E+01 -0.32323884384E+02 -0.53743153029E+02  0.63246744768E+02  0.47000000000E+01 0. -1.
         -5    1    4    4    0  502 -0.48499360051E+02  0.36674804222E+02 -0.48037586595E+02  0.77633297727E+02  0.47000000000E+01 0.  1.
<mgrwt>
<rscale>  0 0.10292283E+03</rscale>
<asrwt>0</asrwt>
<pdfrwt beam="1">  1        2 0.29149808E-01 0.10300013E+03</pdfrwt>
<pdfrwt beam="2">  1       -2 0.88729702E-02 0.10300013E+03</pdfrwt>
<totfact> 0.13290811E+04</totfact>
</mgrwt>
</event>
<event>
 8    1  0.6836165E-004  0.1023277E+03  0.7546771E-02  0.1275546E+00
          1   -1    0    0  501    0  0.00000000000E+00  0.00000000000E+00  0.14690553098E+02  0.14690553098E+02  0.00000000000E+00 0. -1.
         -1   -1    0    0    0  501 -0.00000000000E+00 -0.00000000000E+00 -0.73651013221E+03  0.73651013221E+03  0.00000000000E+00 0.  1.
         23    2    1    2    0    0  0.13549107413E+02 -0.45183779074E+02 -0.29189507332E+03  0.30926626849E+03  0.90651744563E+02 0.  0.
         23    2    1    2    0    0 -0.13549107413E+02  0.45183779074E+02 -0.42992450579E+03  0.44193441682E+03  0.90806364797E+02 0.  0.
          5    1    3    3  502    0  0.31047376119E+02  0.15597949841E+02 -0.67273959215E+02  0.75862449154E+02  0.47000000000E+01 0. -1.
         -5    1    3    3    0  502 -0.17498268706E+02 -0.60781728915E+02 -0.22462111411E+03  0.23340381933E+03  0.47000000000E+01 0.  1.
          5    1    4    4  503    0 -0.27829092628E+00  0.65781745983E+02 -0.19850126858E+03  0.20917016800E+03  0.47000000000E+01 0. -1.
         -5    1    4    4    0  503 -0.13270816487E+02 -0.20597966909E+02 -0.23142323721E+03  0.23276424882E+03  0.47000000000E+01 0.  1.
<mgrwt>
<rscale>  0 0.10229334E+03</rscale>
<asrwt>0</asrwt>
<pdfrwt beam="1">  1        1 0.22600854E-02 0.10232765E+03</pdfrwt>
<pdfrwt beam="2">  1       -1 0.11330924E+00 0.10232765E+03</pdfrwt>
<totfact> 0.36247644E+03</totfact>
</mgrwt>
</event>
<event>
 8    1  0.6836165E-004  0.9496542E+02  0.7546771E-02  0.1291880E+00
         -1   -1    0    0    0  501 -0.00000000000E+00  0.00000000000E+00  0.10489099621E+03  0.10489099621E+03  0.00000000000E+00 0.  1.
          1   -1    0    0  501    0  0.00000000000E+00 -0.00000000000E+00 -0.16598694109E+03  0.16598694109E+03  0.00000000000E+00 0. -1.
         23    2    1    2    0    0 -0.20118687093E+02 -0.64380420202E+01  0.63975367138E+02  0.11450448876E+03  0.92586286186E+02 0.  0.
         23    2    1    2    0    0  0.20118687093E+02  0.64380420202E+01 -0.12507131201E+03  0.15637344854E+03  0.91452787621E+02 0.  0.
          5    1    4    4  502    0 -0.27892578610E+02 -0.59074122754E+01 -0.92409489872E+02  0.96821987584E+02  0.47000000000E+01 0. -1.
         -5    1    4    4    0  502  0.48011265704E+02  0.12345454296E+02 -0.32661822141E+02  0.59551460955E+02  0.47000000000E+01 0.  1.
          5    1    3    3  503    0  0.28892173841E+02  0.46014644707E+01 -0.39445135384E+01  0.29892814715E+02  0.47000000000E+01 0. -1.
         -5    1    3    3    0  503 -0.49010860935E+02 -0.11039506491E+02  0.67919880676E+02  0.84611674042E+02  0.47000000000E+01 0.  1.
<mgrwt>
<rscale>  0 0.94688013E+02</rscale>
<asrwt>0</asrwt>
<pdfrwt beam="1">  1        1 0.25536452E-01 0.94965417E+02</pdfrwt>
<pdfrwt beam="2">  1       -1 0.16137076E-01 0.94965417E+02</pdfrwt>
<totfact> 0.49647709E+03</totfact>
</mgrwt>
</event>
<event>
 8    1  0.6836165E-004  0.1086223E+03  0.7546771E-02  0.1263199E+00
          2   -1    0    0  501    0  0.00000000000E+00  0.00000000000E+00  0.16553401261E+03  0.16553401261E+03  0.00000000000E+00 0. -1.
         -2   -1    0    0    0  501 -0.00000000000E+00 -0.00000000000E+00 -0.11798617720E+03  0.11798617720E+03  0.00000000000E+00 0.  1.
         23    2    1    2    0    0  0.49246573545E+02 -0.29043810161E+02 -0.65487442797E+02  0.12683611911E+03  0.92358150872E+02 0.  0.
         23    2    1    2    0    0 -0.49246573545E+02  0.29043810161E+02  0.11303527821E+03  0.15668407069E+03  0.92217980759E+02 0.  0.
          5    1    4    4  502    0  0.13731861699E+02  0.40706341899E+02  0.56427643674E+02  0.71075588405E+02  0.47000000000E+01 0. -1.
         -5    1    3    3    0  503  0.14830448317E+02 -0.48364356143E+02 -0.70366564512E+02  0.86790532569E+02  0.47000000000E+01 0.  1.
          5    1    3    3  503    0  0.34416125229E+02  0.19320545982E+02  0.48791217147E+01  0.40045586542E+02  0.47000000000E+01 0. -1.
         -5    1    4    4    0  502 -0.62978435244E+02 -0.11662531739E+02  0.56607634534E+02  0.85608482289E+02  0.47000000000E+01 0.  1.
<mgrwt>
<rscale>  0 0.10859246E+03</rscale>
<asrwt>0</asrwt>
<pdfrwt beam="1">  1        2 0.25466771E-01 0.10862226E+03</pdfrwt>
<pdfrwt beam="2">  1       -2 0.18151719E-01 0.10862226E+03</pdfrwt>
<totfact> 0.49230441E+03</totfact>
</mgrwt>
</event>
<event>
 8    1  0.6836165E-004  0.9971316E+02  0.7546771E-02  0.1281454E+00
         -2   -1    0    0    0  501 -0.00000000000E+00  0.00000000000E+00  0.37242255334E+02  0.37242255334E+02  0.00000000000E+00 0.  1.
          2   -1    0    0  501    0  0.00000000000E+00 -0.00000000000E+00 -0.30439286684E+03  0.30439286684E+03  0.00000000000E+00 0. -1.
         23    2    1    2    0    0  0.13184730431E+02 -0.35970971741E+02 -0.70887698323E+02  0.12149461144E+03  0.90929241236E+02 0.  0.
         23    2    1    2    0    0 -0.13184730431E+02  0.35970971741E+02 -0.19626291318E+03  0.22014051073E+03  0.92059575543E+02 0.  0.
          5    1    4    4  502    0 -0.49901851827E+02  0.36698870551E+02 -0.13404149685E+03  0.14773697842E+03  0.47000000000E+01 0. -1.
         -5    1    3    3    0  503 -0.17012642337E+02  0.11771646211E+02  0.94062047893E+01  0.23207075265E+02  0.47000000000E+01 0.  1.
          5    1    3    3  503    0  0.30197372768E+02 -0.47742617952E+02 -0.80293903112E+02  0.98287536178E+02  0.47000000000E+01 0. -1.
         -5    1    4    4    0  502  0.36717121396E+02 -0.72789880973E+00 -0.62221416332E+02  0.72403532308E+02  0.47000000000E+01 0.  1.
<mgrwt>
<rscale>  0 0.99451472E+02</rscale>
<asrwt>0</asrwt>
<pdfrwt beam="1">  1        2 0.46829669E-01 0.99713155E+02</pdfrwt>
<pdfrwt beam="2">  1       -2 0.57295780E-02 0.99713155E+02</pdfrwt>
<totfact> 0.15603325E+04</totfact>
</mgrwt>
</event>
<event>
 8    1  0.6836165E-004  0.1022010E+03  0.7546771E-02  0.1276318E+00
         -4   -1    0    0    0  501 -0.00000000000E+00  0.00000000000E+00  0.12750554683E+03  0.12750554683E+03  0.00000000000E+00 0.  1.
          4   -1    0    0  501    0  0.00000000000E+00 -0.00000000000E+00 -0.83706448395E+02  0.83706448395E+02  0.00000000000E+00 0. -1.
         23    2    1    2    0    0 -0.10953525448E+02  0.39752056709E+02  0.40970850395E+02  0.11010745502E+03  0.93513824307E+02 0.  0.
         23    2    1    2    0    0  0.10953525448E+02 -0.39752056709E+02  0.28282480372E+01  0.10110454020E+03  0.92270923536E+02 0.  0.
          5    1    3    3  502    0 -0.66925763637E+01 -0.28029885659E+02  0.28681393801E+02  0.40928931317E+02  0.47000000000E+01 0. -1.
         -5    1    3    3    0  502 -0.42609490839E+01  0.67781942368E+02  0.12289456594E+02  0.69178523702E+02  0.47000000000E+01 0.  1.
          5    1    4    4  503    0 -0.24639003953E+02 -0.48969682166E+02 -0.18856329797E+02  0.58161511850E+02  0.47000000000E+01 0. -1.
         -5    1    4    4    0  503  0.35592529400E+02  0.92176254575E+01  0.21684577834E+02  0.42943028352E+02  0.47000000000E+01 0.  1.
<mgrwt>
<rscale>  0 0.10191579E+03</rscale>
<asrwt>0</asrwt>
<pdfrwt beam="1">  1        4 0.12877915E-01 0.10220098E+03</pdfrwt>
<pdfrwt beam="2">  1       -4 0.19616238E-01 0.10220098E+03</pdfrwt>
<totfact> 0.17671264E+03</totfact>
</mgrwt>
</event>
<event>
 8    1  0.6836165E-004  0.1003142E+03  0.7546771E-02  0.1281290E+00
          1   -1    0    0  501    0  0.00000000000E+00  0.00000000000E+00  0.80230079159E+03  0.80230079159E+03  0.00000000000E+00 0. -1.
         -1   -1    0    0    0  501 -0.00000000000E+00 -0.00000000000E+00 -0.19524447235E+02  0.19524447235E+02  0.00000000000E+00 0.  1.
         23    2    1    2    0    0 -0.25257870544E+02 -0.22074661086E+02  0.64760879030E+03  0.65533203627E+03  0.94539313585E+02 0.  0.
         23    2    1    2    0    0  0.25257870544E+02  0.22074661086E+02  0.13516755406E+03  0.16649320255E+03  0.91238523325E+02 0.  0.
          5    1    4    4  502    0  0.14611280371E+02 -0.35390494327E+02  0.53064051205E+02  0.65603811879E+02  0.47000000000E+01 0. -1.
         -5    1    3    3    0  503 -0.76486666789E+01  0.37173376963E+02  0.26026128359E+03  0.26305586439E+03  0.47000000000E+01 0.  1.
          5    1    3    3  503    0 -0.17609203865E+02 -0.59248038048E+02  0.38734750671E+03  0.39227617188E+03  0.47000000000E+01 0. -1.
         -5    1    4    4    0  502  0.10646590172E+02  0.57465155413E+02  0.82103502855E+02  0.10088939067E+03  0.47000000000E+01 0.  1.
<mgrwt>
<rscale>  0 0.99528869E+02</rscale>
<asrwt>0</asrwt>
<pdfrwt beam="1">  1        1 0.12343087E+00 0.10031417E+03</pdfrwt>
<pdfrwt beam="2">  1       -1 0.30037617E-02 0.10031417E+03</pdfrwt>
<totfact> 0.81688762E+03</totfact>
</mgrwt>
</event>
<event>
 8    1  0.6836165E-004  0.1011589E+03  0.7546771E-02  0.1279430E+00
          1   -1    0    0  501    0  0.00000000000E+00  0.00000000000E+00  0.89962960379E+02  0.89962960379E+02  0.00000000000E+00 0. -1.
         -1   -1    0    0    0  501 -0.00000000000E+00 -0.00000000000E+00 -0.13690492341E+03  0.13690492341E+03  0.00000000000E+00 0.  1.
         23    2    1    2    0    0  0.20284929875E+02 -0.39073960417E+02 -0.73606365297E+02  0.12510407672E+03  0.91076233113E+02 0.  0.
         23    2    1    2    0    0 -0.20284929875E+02  0.39073960417E+02  0.26664402262E+02  0.10176380707E+03  0.87787409795E+02 0.  0.
          5    1    3    3  502    0  0.23848342989E+01  0.23901661018E+02  0.24989433219E+01  0.24603080128E+02  0.47000000000E+01 0. -1.
         -5    1    3    3    0  502  0.17900095576E+02 -0.62975621435E+02 -0.76105308619E+02  0.10050099660E+03  0.47000000000E+01 0.  1.
          5    1    4    4  503    0  0.16334092640E+02  0.19941147172E+02  0.48255286889E+02  0.54910059604E+02  0.47000000000E+01 0. -1.
         -5    1    4    4    0  503 -0.36619022515E+02  0.19132813245E+02 -0.21590884627E+02  0.46853747466E+02  0.47000000000E+01 0.  1.
<mgrwt>
<rscale>  0 0.10041309E+03</rscale>
<asrwt>0</asrwt>
<pdfrwt beam="1">  1        1 0.13840456E-01 0.10115895E+03</pdfrwt>
<pdfrwt beam="2">  1       -1 0.21062296E-01 0.10115895E+03</pdfrwt>
<totfact> 0.71016858E+03</totfact>
</mgrwt>
</event>
<event>
 8    1  0.6836165E-004  0.9161285E+02  0.7546771E-02  0.1299533E+00
          1   -1    0    0  501    0  0.00000000000E+00  0.00000000000E+00  0.54687010930E+02  0.54687010930E+02  0.00000000000E+00 0. -1.
         -1   -1    0    0    0  501 -0.00000000000E+00 -0.00000000000E+00 -0.17250894331E+03  0.17250894331E+03  0.00000000000E+00 0.  1.
         23    2    1    2    0    0 -0.38251667891E+01  0.11244344291E+01 -0.19954600748E+02  0.93760872755E+02  0.91526055935E+02 0.  0.
         23    2    1    2    0    0  0.38251667891E+01 -0.11244344291E+01 -0.97867331628E+02  0.13343508148E+03  0.90614624185E+02 0.  0.
          5    1    3    3  502    0 -0.10185133644E+02 -0.24807931215E+02  0.27759336569E+02  0.38882401743E+02  0.47000000000E+01 0. -1.
         -5    1    3    3    0  502  0.63599668549E+01  0.25932365644E+02 -0.47713937317E+02  0.54878471012E+02  0.47000000000E+01 0.  1.
          5    1    4    4  503    0  0.45480231998E+02 -0.11980403965E+02 -0.54691499100E+02  0.72285763851E+02  0.47000000000E+01 0. -1.
         -5    1    4    4    0  503 -0.41655065209E+02  0.10855969536E+02 -0.43175832528E+02  0.61149317630E+02  0.47000000000E+01 0.  1.
<mgrwt>
<rscale>  0 0.91384362E+02</rscale>
<asrwt>0</asrwt>
<pdfrwt beam="1">  1        1 0.84133864E-02 0.91612855E+02</pdfrwt>
<pdfrwt beam="2">  1       -1 0.26539837E-01 0.91612855E+02</pdfrwt>
<totfact> 0.92798902E+03</totfact>
</mgrwt>
</event>
<event>
 8    1  0.9329717E-004  0.9352716E+02  0.7546771E-02  0.1294700E+00
         -2   -1    0    0    0  501 -0.00000000000E+00  0.00000000000E+00  0.58909473195E+02  0.58909473195E+02  0.00000000000E+00 0.  1.
          2   -1    0    0  501    0  0.00000000000E+00 -0.00000000000E+00 -0.32482215207E+03  0.32482215207E+03  0.00000000000E+00 0. -1.
         23    2    1    2    0    0 -0.64763163228E+01  0.15067308159E+02 -0.27441440258E+03  0.28981885707E+03  0.91775482129E+02 0.  0.
         23    2    1    2    0    0  0.64763163228E+01 -0.15067308159E+02  0.85017237057E+01  0.93912768198E+02  0.92078022765E+02 0.  0.
          5    1    4    4  502    0  0.47596437738E+02 -0.88435501536E+01 -0.72850657676E+01  0.49181210313E+02  0.47000000000E+01 0. -1.
         -5    1    3    3    0  503 -0.42113413751E+02  0.23735990400E+02 -0.95704137090E+02  0.10732338382E+03  0.47000000000E+01 0.  1.
          5    1    3    3  503    0  0.35637097428E+02 -0.86686822412E+01 -0.17871026549E+03  0.18249547325E+03  0.47000000000E+01 0. -1.
         -5    1    4    4    0  502 -0.41120121415E+02 -0.62237580053E+01  0.15786789473E+02  0.44731557885E+02  0.47000000000E+01 0.  1.
<mgrwt>
<rscale>  0 0.93452606E+02</rscale>
<asrwt>0</asrwt>
<pdfrwt beam="1">  1        2 0.49972637E-01 0.93527155E+02</pdfrwt>
<pdfrwt beam="2">  1       -2 0.90629962E-02 0.93527155E+02</pdfrwt>
<totfact> 0.72193613E+03</totfact>
</mgrwt>
</event>
<event>
 8    1  0.6836165E-004  0.1390305E+03  0.7546771E-02  0.1219500E+00
          3   -1    0    0  501    0  0.00000000000E+00  0.00000000000E+00  0.65302358946E+03  0.65302358946E+03  0.00000000000E+00 0. -1.
         -3   -1    0    0    0  501 -0.00000000000E+00 -0.00000000000E+00 -0.33904695364E+02  0.33904695364E+02  0.00000000000E+00 0.  1.
         23    2    1    2    0    0 -0.79017870373E+02  0.34812871507E+02  0.13980361423E+03  0.18785651593E+03  0.91045374224E+02 0.  0.
         23    2    1    2    0    0  0.79017870373E+02 -0.34812871507E+02  0.47931527987E+03  0.49907176889E+03  0.10896666061E+03 0.  0.
          5    1    3    3  502    0 -0.26633870741E+02 -0.25201716850E+02  0.80021810901E+02  0.88147999539E+02  0.47000000000E+01 0. -1.
         -5    1    4    4    0  503  0.27695695762E+02 -0.55523051005E+02  0.11694150232E+03  0.13246609273E+03  0.47000000000E+01 0.  1.
          5    1    4    4  503    0  0.51322174611E+02  0.20710179499E+02  0.36237377755E+03  0.36660567617E+03  0.47000000000E+01 0. -1.
         -5    1    3    3    0  502 -0.52383999632E+02  0.60014588356E+02  0.59781803324E+02  0.99708516395E+02  0.47000000000E+01 0.  1.
<mgrwt>
<rscale>  0 0.13551132E+03</rscale>
<asrwt>0</asrwt>
<pdfrwt beam="1">  1        3 0.10046516E+00 0.13903055E+03</pdfrwt>
<pdfrwt beam="2">  1       -3 0.52161075E-02 0.13903055E+03</pdfrwt>
<totfact> 0.44561044E+02</totfact>
</mgrwt>
</event>
<event>
 8    1  0.6836165E-004  0.9621053E+02  0.7546771E-02  0.1289119E+00
          1   -1    0    0  501    0  0.00000000000E+00  0.00000000000E+00  0.28644737471E+02  0.28644737471E+02  0.00000000000E+00 0. -1.
         -1   -1    0    0    0  501 -0.00000000000E+00 -0.00000000000E+00 -0.31926539005E+03  0.31926539005E+03  0.00000000000E+00 0.  1.
         23    2    1    2    0    0 -0.84620201262E+01 -0.27165729113E+02 -0.14375069211E+03  0.17233321774E+03  0.90691200418E+02 0.  0.
         23    2    1    2    0    0  0.84620201262E+01  0.27165729113E+02 -0.14686996047E+03  0.17557690977E+03  0.91906927571E+02 0.  0.
          5    1    3    3  502    0  0.23651530739E+02 -0.28037655001E+02 -0.15605289431E+02  0.40138760101E+02  0.47000000000E+01 0. -1.
         -5    1    4    4    0  503  0.27184790091E+02 -0.26848128231E+02 -0.66479198786E+02  0.76820626612E+02  0.47000000000E+01 0.  1.
          5    1    4    4  503    0 -0.18722769965E+02  0.54013857344E+02 -0.80390761680E+02  0.98756283162E+02  0.47000000000E+01 0. -1.
         -5    1    3    3    0  502 -0.32113550865E+02  0.87192588765E+00 -0.12814540268E+03  0.13219445764E+03  0.47000000000E+01 0.  1.
<mgrwt>
<rscale>  0 0.95919041E+02</rscale>
<asrwt>0</asrwt>
<pdfrwt beam="1">  1        1 0.44068826E-02 0.96210529E+02</pdfrwt>
<pdfrwt beam="2">  1       -1 0.49117754E-01 0.96210529E+02</pdfrwt>
<totfact> 0.77378862E+03</totfact>
</mgrwt>
</event>
<event>
 8    1  0.6836165E-004  0.1927609E+03  0.7546771E-02  0.1156046E+00
          1   -1    0    0  501    0  0.00000000000E+00  0.00000000000E+00  0.80547982119E+02  0.80547982119E+02  0.00000000000E+00 0. -1.
         -1   -1    0    0    0  501 -0.00000000000E+00 -0.00000000000E+00 -0.47802396092E+03  0.47802396092E+03  0.00000000000E+00 0.  1.
         23    2    1    2    0    0  0.68661185792E+02  0.15570062571E+03 -0.25195274145E+03  0.31723326384E+03  0.90552285910E+02 0.  0.
         23    2    1    2    0    0 -0.68661185792E+02 -0.15570062571E+03 -0.14552323735E+03  0.24133867919E+03  0.90057216172E+02 0.  0.
          5    1    4    4  502    0 -0.55426167084E+01 -0.79811177642E+02 -0.11048778024E+03  0.13649243297E+03  0.47000000000E+01 0. -1.
         -5    1    3    3    0  503  0.36720666237E+02  0.10938071089E+03 -0.92111171476E+02  0.14771291465E+03  0.47000000000E+01 0.  1.
          5    1    3    3  503    0  0.31940519555E+02  0.46319914818E+02 -0.15984156997E+03  0.16952034919E+03  0.47000000000E+01 0. -1.
         -5    1    4    4    0  502 -0.63118569083E+02 -0.75889448071E+02 -0.35035457110E+02  0.10484624622E+03  0.47000000000E+01 0.  1.
<mgrwt>
<rscale>  0 0.19270284E+03</rscale>
<asrwt>0</asrwt>
<pdfrwt beam="1">  1        1 0.12391997E-01 0.19276089E+03</pdfrwt>
<pdfrwt beam="2">  1       -1 0.73542149E-01 0.19276089E+03</pdfrwt>
<totfact> 0.92758471E+02</totfact>
</mgrwt>
</event>
<event>
 8    1  0.6836165E-004  0.1043393E+03  0.7546771E-02  0.1273744E+00
          1   -1    0    0  501    0  0.00000000000E+00  0.00000000000E+00  0.35892901463E+02  0.35892901463E+02  0.00000000000E+00 0. -1.
         -1   -1    0    0    0  501 -0.00000000000E+00 -0.00000000000E+00 -0.74914457089E+03  0.74914457089E+03  0.00000000000E+00 0.  1.
         23    2    1    2    0    0  0.49894833617E+01  0.34473708235E+02 -0.66689840117E+03  0.67501122902E+03  0.98353191696E+02 0.  0.
         23    2    1    2    0    0 -0.49894833617E+01 -0.34473708235E+02 -0.46353268252E+02  0.11002624333E+03  0.93508380584E+02 0.  0.
          5    1    4    4  502    0 -0.42472971181E+02 -0.35019181413E+00 -0.24520124508E+01  0.42803951690E+02  0.47000000000E+01 0. -1.
         -5    1    3    3    0  503 -0.11791247630E+02  0.65384895186E+02 -0.49728123014E+03  0.50172196473E+03  0.47000000000E+01 0.  1.
          5    1    3    3  503    0  0.16780730992E+02 -0.30911186951E+02 -0.16961717103E+03  0.17328926429E+03  0.47000000000E+01 0. -1.
         -5    1    4    4    0  502  0.37483487819E+02 -0.34123516421E+02 -0.43901255801E+02  0.67222291637E+02  0.47000000000E+01 0.  1.
<mgrwt>
<rscale>  0 0.10318170E+03</rscale>
<asrwt>0</asrwt>
<pdfrwt beam="1">  1        1 0.55219849E-02 0.10433926E+03</pdfrwt>
<pdfrwt beam="2">  1       -1 0.11525301E+00 0.10433926E+03</pdfrwt>
<totfact> 0.10279151E+03</totfact>
</mgrwt>
</event>
<event>
 8    1  0.6836165E-004  0.9853261E+02  0.7546771E-02  0.1284018E+00
          1   -1    0    0  501    0  0.00000000000E+00  0.00000000000E+00  0.47390886911E+02  0.47390886911E+02  0.00000000000E+00 0. -1.
         -1   -1    0    0    0  501 -0.00000000000E+00 -0.00000000000E+00 -0.20992650946E+03  0.20992650946E+03  0.00000000000E+00 0.  1.
         23    2    1    2    0    0  0.35239448571E+02 -0.28568465685E+01 -0.10585674921E+03  0.14461786390E+03  0.91971163400E+02 0.  0.
         23    2    1    2    0    0 -0.35239448571E+02  0.28568465685E+01 -0.56678873345E+02  0.11269953248E+03  0.90767337900E+02 0.  0.
          5    1    4    4  502    0 -0.14463567366E+02  0.30245753648E+02 -0.68199647583E+02  0.76139886558E+02  0.47000000000E+01 0. -1.
         -5    1    3    3    0  503 -0.21376214834E+02 -0.15114298740E+02 -0.73357076955E+02  0.78030348753E+02  0.47000000000E+01 0.  1.
          5    1    3    3  503    0  0.56615663405E+02  0.12257452171E+02 -0.32499672253E+02  0.66587515144E+02  0.47000000000E+01 0. -1.
         -5    1    4    4    0  502 -0.20775881204E+02 -0.27388907079E+02  0.11520774238E+02  0.36559645921E+02  0.47000000000E+01 0.  1.
<mgrwt>
<rscale>  0 0.98250727E+02</rscale>
<asrwt>0</asrwt>
<pdfrwt beam="1">  1        1 0.72909057E-02 0.98532610E+02</pdfrwt>
<pdfrwt beam="2">  1       -1 0.32296386E-01 0.98532610E+02</pdfrwt>
<totfact> 0.81574857E+03</totfact>
</mgrwt>
</event>
<event>
 8    1  0.6836165E-004  0.1907405E+03  0.7546771E-02  0.1158455E+00
          1   -1    0    0  501    0  0.00000000000E+00  0.00000000000E+00  0.30213824704E+03  0.30213824704E+03  0.00000000000E+00 0. -1.
         -1   -1    0    0    0  501 -0.00000000000E+00 -0.00000000000E+00 -0.27524833274E+03  0.27524833274E+03  0.00000000000E+00 0.  1.
         23    2    1    2    0    0  0.61636886757E+02 -0.15198393775E+03 -0.20431175933E+03  0.27950893531E+03  0.97384427796E+02 0.  0.
         23    2    1    2    0    0 -0.61636886757E+02  0.15198393775E+03  0.23120167362E+03  0.29787764447E+03  0.91534988088E+02 0.  0.
          5    1    3    3  502    0 -0.33769245894E+01 -0.73650112701E+02 -0.34661597232E+02  0.81604283241E+02  0.47000000000E+01 0. -1.
         -5    1    3    3    0  502  0.65013811346E+02 -0.78333825046E+02 -0.16965016210E+03  0.19790465207E+03  0.47000000000E+01 0.  1.
          5    1    4    4  503    0 -0.21482207429E+02  0.34721653331E+02  0.13438581624E+03  0.14053012508E+03  0.47000000000E+01 0. -1.
         -5    1    4    4    0  503 -0.40154679328E+02  0.11726228442E+03  0.96815857379E+02  0.15734751939E+03  0.47000000000E+01 0.  1.
<mgrwt>
<rscale>  0 0.19000652E+03</rscale>
<asrwt>0</asrwt>
<pdfrwt beam="1">  1        1 0.46482807E-01 0.19074053E+03</pdfrwt>
<pdfrwt beam="2">  1       -1 0.42345897E-01 0.19074053E+03</pdfrwt>
<totfact> 0.48747329E+02</totfact>
</mgrwt>
</event>
<event>
 8    1  0.6836165E-004  0.9198940E+02  0.7546771E-02  0.1298624E+00
          1   -1    0    0  501    0  0.00000000000E+00  0.00000000000E+00  0.84146861133E+03  0.84146861133E+03  0.00000000000E+00 0. -1.
         -1   -1    0    0    0  501 -0.00000000000E+00 -0.00000000000E+00 -0.12796414610E+02  0.12796414610E+02  0.00000000000E+00 0.  1.
         23    2    1    2    0    0  0.62799750132E+01  0.10916122909E+02  0.21480484403E+03  0.23367321245E+03  0.91123264734E+02 0.  0.
         23    2    1    2    0    0 -0.62799750132E+01 -0.10916122909E+02  0.61386735270E+03  0.62059181349E+03  0.90235649488E+02 0.  0.
          5    1    4    4  502    0 -0.47436305361E+02 -0.25515405766E+01  0.27688243216E+03  0.28096740854E+03  0.47000000000E+01 0. -1.
         -5    1    3    3    0  503 -0.19308434142E+02  0.39376559319E+02  0.62064590535E+02  0.76140872408E+02  0.47000000000E+01 0. -1.
          5    1    3    3  503    0  0.25588409155E+02 -0.28460436410E+02  0.15274025349E+03  0.15753234005E+03  0.47000000000E+01 0.  1.
         -5    1    4    4    0  502  0.41156330348E+02 -0.83645823321E+01  0.33698492054E+03  0.33962440495E+03  0.47000000000E+01 0.  1.
<mgrwt>
<rscale>  0 0.91768811E+02</rscale>
<asrwt>0</asrwt>
<pdfrwt beam="1">  1        1 0.12945667E+00 0.91989397E+02</pdfrwt>
<pdfrwt beam="2">  1       -1 0.19686798E-02 0.91989397E+02</pdfrwt>
<totfact> 0.13857001E+04</totfact>
</mgrwt>
</event>
<event>
 8    1  0.6836165E-004  0.1224400E+03  0.7546771E-02  0.1239723E+00
         -1   -1    0    0    0  501 -0.00000000000E+00  0.00000000000E+00  0.30634234499E+03  0.30634234499E+03  0.00000000000E+00 0.  1.
          1   -1    0    0  501    0  0.00000000000E+00 -0.00000000000E+00 -0.53440284666E+02  0.53440284666E+02  0.00000000000E+00 0. -1.
         23    2    1    2    0    0 -0.54354875552E+02  0.59461165015E+02  0.18267438979E+03  0.21991242885E+03  0.92203367813E+02 0.  0.
         23    2    1    2    0    0  0.54354875552E+02 -0.59461165015E+02  0.70227670538E+02  0.13987020081E+03  0.90231173794E+02 0.  0.
          5    1    4    4  502    0 -0.22049719779E+02 -0.11903484759E+02  0.34567267089E+02  0.42951938789E+02  0.47000000000E+01 0. -1.
         -5    1    4    4    0  502  0.76404595331E+02 -0.47557680256E+02  0.35660403450E+02  0.96918262021E+02  0.47000000000E+01 0.  1.
          5    1    3    3  503    0 -0.19031263344E+02 -0.23114105505E+02  0.29545262586E+02  0.42325682499E+02  0.47000000000E+01 0. -1.
         -5    1    3    3    0  503 -0.35323612208E+02  0.82575270520E+02  0.15312912720E+03  0.17758674635E+03  0.47000000000E+01 0.  1.
<mgrwt>
<rscale>  0 0.12206872E+03</rscale>
<asrwt>0</asrwt>
<pdfrwt beam="1">  1        1 0.82215825E-02 0.12243996E+03</pdfrwt>
<pdfrwt beam="2">  1       -1 0.47129590E-01 0.12243996E+03</pdfrwt>
<totfact> 0.36627899E+03</totfact>
</mgrwt>
</event>
<event>
 8    1  0.6836165E-004  0.1022940E+03  0.7546771E-02  0.1275990E+00
         -2   -1    0    0    0  501 -0.00000000000E+00  0.00000000000E+00  0.32152106227E+02  0.32152106227E+02  0.00000000000E+00 0.  1.
          2   -1    0    0  501    0  0.00000000000E+00 -0.00000000000E+00 -0.53927220309E+03  0.53927220309E+03  0.00000000000E+00 0. -1.
         23    2    1    2    0    0 -0.23324383694E+02  0.33239174335E+02 -0.73145071269E+02  0.12575481530E+03  0.93889310014E+02 0.  0.
         23    2    1    2    0    0  0.23324383694E+02 -0.33239174335E+02 -0.43397502559E+03  0.44566949402E+03  0.92941408818E+02 0.  0.
          5    1    3    3  502    0 -0.43945614280E+02  0.39152896215E+02 -0.82856519823E+02  0.10174212094E+03  0.47000000000E+01 0. -1.
         -5    1    4    4    0  503  0.30495073735E+02  0.23367237269E+02 -0.25040705433E+03  0.25338066256E+03  0.47000000000E+01 0.  1.
          5    1    4    4  503    0 -0.71706900407E+01 -0.56606411603E+02 -0.18356797126E+03  0.19228883146E+03  0.47000000000E+01 0. -1.
         -5    1    3    3    0  502  0.20621230586E+02 -0.59137218805E+01  0.97114485534E+01  0.24012694359E+02  0.47000000000E+01 0.  1.
<mgrwt>
<rscale>  0 0.10207602E+03</rscale>
<asrwt>0</asrwt>
<pdfrwt beam="1">  1        2 0.82964947E-01 0.10229405E+03</pdfrwt>
<pdfrwt beam="2">  1       -2 0.49464783E-02 0.10229405E+03</pdfrwt>
<totfact> 0.10600061E+04</totfact>
</mgrwt>
</event>
<event>
 8    1  0.6836165E-004  0.1005261E+03  0.7546771E-02  0.1283044E+00
          2   -1    0    0  501    0  0.00000000000E+00  0.00000000000E+00  0.10822071250E+04  0.10822071250E+04  0.00000000000E+00 0. -1.
         -2   -1    0    0    0  501 -0.00000000000E+00 -0.00000000000E+00 -0.89442662826E+01  0.89442662826E+01  0.00000000000E+00 0.  1.
         23    2    1    2    0    0  0.11992738614E+02  0.93673869051E+01  0.60934491554E+03  0.61646691591E+03  0.92188169529E+02 0.  0.
         23    2    1    2    0    0 -0.11992738614E+02 -0.93673869051E+01  0.46391794315E+03  0.47468447534E+03  0.99367597534E+02 0.  0.
          5    1    4    4  502    0  0.55312886338E+01  0.43773965916E+02  0.20363031246E+03  0.20840861162E+03  0.47000000000E+01 0. -1.
         -5    1    4    4    0  502 -0.17524027247E+02 -0.53141352821E+02  0.26028763069E+03  0.26627586372E+03  0.47000000000E+01 0.  1.
          5    1    3    3  503    0  0.51902567754E+02  0.89658445883E+01  0.31883940030E+03  0.32319485777E+03  0.47000000000E+01 0. -1.
         -5    1    3    3    0  503 -0.39909829140E+02  0.40154231684E+00  0.29050551525E+03  0.29327205814E+03  0.47000000000E+01 0.  1.
<mgrwt>
<rscale>  0 0.98704577E+02</rscale>
<asrwt>0</asrwt>
<pdfrwt beam="1">  1        2 0.16649330E+00 0.10052608E+03</pdfrwt>
<pdfrwt beam="2">  1       -2 0.13760418E-02 0.10052608E+03</pdfrwt>
<totfact> 0.29003532E+04</totfact>
</mgrwt>
</event>
<event>
 8    1  0.6836165E-004  0.9436441E+02  0.7546771E-02  0.1293613E+00
          1   -1    0    0  501    0  0.00000000000E+00  0.00000000000E+00  0.76049410115E+03  0.76049410115E+03  0.00000000000E+00 0. -1.
         -1   -1    0    0    0  501 -0.00000000000E+00 -0.00000000000E+00 -0.12719071567E+02  0.12719071567E+02  0.00000000000E+00 0.  1.
         23    2    1    2    0    0  0.19209178378E+02 -0.50645305714E+01  0.25076371586E+03  0.26732297989E+03  0.90468184338E+02 0.  0.
         23    2    1    2    0    0 -0.19209178378E+02  0.50645305714E+01  0.49701131371E+03  0.50589019283E+03  0.92249657088E+02 0.  0.
          5    1    3    3  502    0  0.33512178687E+02 -0.38499633235E+02  0.18562991386E+03  0.19257684907E+03  0.47000000000E+01 0. -1.
         -5    1    3    3    0  502 -0.14303000309E+02  0.33435102664E+02  0.65133802009E+02  0.74746130817E+02  0.47000000000E+01 0.  1.
          5    1    4    4  503    0 -0.42466361568E+02 -0.24998065922E+02  0.36799749272E+03  0.37131191715E+03  0.47000000000E+01 0. -1.
         -5    1    4    4    0  503  0.23257183190E+02  0.30062596493E+02  0.12901382099E+03  0.13457827568E+03  0.47000000000E+01 0.  1.
<mgrwt>
<rscale>  0 0.93926166E+02</rscale>
<asrwt>0</asrwt>
<pdfrwt beam="1">  1        1 0.11699906E+00 0.94364407E+02</pdfrwt>
<pdfrwt beam="2">  1       -1 0.19567808E-02 0.94364407E+02</pdfrwt>
<totfact> 0.16277264E+04</totfact>
</mgrwt>
</event>
<event>
 8    1  0.6836165E-004  0.1246710E+03  0.7546771E-02  0.1235845E+00
         -2   -1    0    0    0  501 -0.00000000000E+00  0.00000000000E+00  0.99663704120E+02  0.99663704120E+02  0.00000000000E+00 0.  1.
          2   -1    0    0  501    0  0.00000000000E+00 -0.00000000000E+00 -0.17359693328E+03  0.17359693328E+03  0.00000000000E+00 0. -1.
         23    2    1    2    0    0  0.23665506643E+02  0.81722720542E+02  0.76892786391E+01  0.12424687160E+03  0.90219182216E+02 0.  0.
         23    2    1    2    0    0 -0.23665506643E+02 -0.81722720542E+02 -0.81622507800E+02  0.14901376580E+03  0.91127434728E+02 0.  0.
          5    1    3    3  502    0  0.53117112593E+02  0.22884350186E+02  0.45813339599E+01  0.58208244730E+02  0.47000000000E+01 0. -1.
         -5    1    4    4    0  503 -0.50783098355E+02 -0.16365448460E+02 -0.31026373361E+02  0.61898924270E+02  0.47000000000E+01 0.  1.
          5    1    4    4  503    0  0.27117591712E+02 -0.65357272082E+02 -0.50596134439E+02  0.87114841528E+02  0.47000000000E+01 0. -1.
         -5    1    3    3    0  502 -0.29451605950E+02  0.58838370356E+02  0.31079446792E+01  0.66038626873E+02  0.47000000000E+01 0.  1.
<mgrwt>
<rscale>  0 0.12450513E+03</rscale>
<asrwt>0</asrwt>
<pdfrwt beam="1">  1        2 0.26707220E-01 0.12467104E+03</pdfrwt>
<pdfrwt beam="2">  1       -2 0.15332878E-01 0.12467104E+03</pdfrwt>
<totfact> 0.62301525E+03</totfact>
</mgrwt>
</event>
<event>
 8    1  0.6836165E-004  0.9483868E+02  0.7546771E-02  0.1291586E+00
          1   -1    0    0  501    0  0.00000000000E+00  0.00000000000E+00  0.56468667755E+03  0.56468667755E+03  0.00000000000E+00 0. -1.
         -1   -1    0    0    0  501 -0.00000000000E+00 -0.00000000000E+00 -0.17715496868E+02  0.17715496868E+02  0.00000000000E+00 0.  1.
         23    2    1    2    0    0  0.15797890371E+02 -0.21227381208E+02  0.18052618960E+03  0.20388360490E+03  0.90987054911E+02 0.  0.
         23    2    1    2    0    0 -0.15797890371E+02  0.21227381208E+02  0.36644499109E+03  0.37851856952E+03  0.91072503696E+02 0.  0.
          5    1    3    3  502    0 -0.48588782600E+01  0.27545394441E+02  0.12004762298E+03  0.12335266205E+03  0.47000000000E+01 0. -1.
         -5    1    3    3    0  502  0.20656768631E+02 -0.48772775649E+02  0.60478566620E+02  0.80530942843E+02  0.47000000000E+01 0.  1.
          5    1    4    4  503    0  0.35393802868E+01  0.41775347970E+02  0.32745243424E+03  0.33015889144E+03  0.47000000000E+01 0. -1.
         -5    1    4    4    0  503 -0.19337270658E+02 -0.20547966762E+02  0.38992556850E+02  0.48359678082E+02  0.47000000000E+01 0.  1.
<mgrwt>
<rscale>  0 0.94818164E+02</rscale>
<asrwt>0</asrwt>
<pdfrwt beam="1">  1        1 0.86874860E-01 0.94838684E+02</pdfrwt>
<pdfrwt beam="2">  1       -1 0.27254615E-02 0.94838684E+02</pdfrwt>
<totfact> 0.15279878E+04</totfact>
</mgrwt>
</event>
<event>
 8    1  0.6836165E-004  0.1153810E+03  0.7546771E-02  0.1251225E+00
         -2   -1    0    0    0  501 -0.00000000000E+00  0.00000000000E+00  0.14948342357E+02  0.14948342357E+02  0.00000000000E+00 0.  1.
          2   -1    0    0  501    0  0.00000000000E+00 -0.00000000000E+00 -0.88576724701E+03  0.88576724701E+03  0.00000000000E+00 0. -1.
         23    2    1    2    0    0  0.31461398657E+02 -0.62937700981E+02 -0.42476807319E+03  0.44015984167E+03  0.91442858663E+02 0.  0.
         23    2    1    2    0    0 -0.31461398657E+02  0.62937700981E+02 -0.44605083146E+03  0.46055574770E+03  0.90549868495E+02 0.  0.
          5    1    3    3  502    0  0.28038115046E+02 -0.12328179394E+02 -0.33673710976E+02  0.45761651122E+02  0.47000000000E+01 0. -1.
         -5    1    4    4    0  503  0.23151737949E+02  0.39814416313E+02 -0.11105639521E+03  0.12031958956E+03  0.47000000000E+01 0.  1.
          5    1    4    4  503    0 -0.54613136606E+02  0.23123284668E+02 -0.33499443625E+03  0.34023615813E+03  0.47000000000E+01 0. -1.
         -5    1    3    3    0  502  0.34232836104E+01 -0.50609521588E+02 -0.39109436222E+03  0.39439819054E+03  0.47000000000E+01 0.  1.
<mgrwt>
<rscale>  0 0.11520396E+03</rscale>
<asrwt>0</asrwt>
<pdfrwt beam="1">  1        2 0.13627190E+00 0.11538098E+03</pdfrwt>
<pdfrwt beam="2">  1       -2 0.22997448E-02 0.11538098E+03</pdfrwt>
<totfact> 0.18356208E+04</totfact>
</mgrwt>
</event>
<event>
 8    1  0.6836165E-004  0.1166769E+03  0.7546771E-02  0.1248826E+00
         -1   -1    0    0    0  501 -0.00000000000E+00  0.00000000000E+00  0.85423913120E+03  0.85423913120E+03  0.00000000000E+00 0.  1.
          1   -1    0    0  501    0  0.00000000000E+00 -0.00000000000E+00 -0.17773870178E+02  0.17773870178E+02  0.00000000000E+00 0. -1.
         23    2    1    2    0    0 -0.70275110803E+02  0.26817852212E+02  0.27577271949E+03  0.29930921709E+03  0.88755992597E+02 0.  0.
         23    2    1    2    0    0  0.70275110803E+02 -0.26817852212E+02  0.56069254153E+03  0.57270378429E+03  0.89194786939E+02 0.  0.
          5    1    3    3  502    0 -0.72451394415E+02 -0.10568094761E+02  0.22044620001E+03  0.23233490112E+03  0.47000000000E+01 0. -1.
         -5    1    3    3    0  502  0.21762836120E+01  0.37385946972E+02  0.55326519483E+02  0.66974315968E+02  0.47000000000E+01 0.  1.
          5    1    4    4  503    0 -0.14647390287E+02 -0.24805048160E+02  0.19969165337E+03  0.20181348538E+03  0.47000000000E+01 0. -1.
         -5    1    4    4    0  503  0.84922501090E+02 -0.20128040516E+01  0.36100088816E+03  0.37089029891E+03  0.47000000000E+01 0.  1.
<mgrwt>
<rscale>  0 0.11659303E+03</rscale>
<asrwt>0</asrwt>
<pdfrwt beam="1">  1        1 0.27344422E-02 0.11667690E+03</pdfrwt>
<pdfrwt beam="2">  1       -1 0.13142137E+00 0.11667690E+03</pdfrwt>
<totfact> 0.19813930E+03</totfact>
</mgrwt>
</event>
<event>
 8    1  0.6836165E-004  0.9735282E+02  0.7546771E-02  0.1286927E+00
         -2   -1    0    0    0  501 -0.00000000000E+00  0.00000000000E+00  0.46245187117E+02  0.46245187117E+02  0.00000000000E+00 0.  1.
          2   -1    0    0  501    0  0.00000000000E+00 -0.00000000000E+00 -0.20280673736E+03  0.20280673736E+03  0.00000000000E+00 0. -1.
         23    2    1    2    0    0 -0.16660700370E+02 -0.26189497955E+02 -0.89818740267E+02  0.13245745608E+03  0.92271896195E+02 0.  0.
         23    2    1    2    0    0  0.16660700370E+02  0.26189497955E+02 -0.66742809978E+02  0.11659446840E+03  0.90422334840E+02 0.  0.
          5    1    3    3  502    0 -0.32891138347E+02  0.71617276420E+00  0.39363614663E+01  0.33465277928E+02  0.47000000000E+01 0. -1.
         -5    1    4    4    0  503 -0.17921351193E+02  0.46340805217E+02 -0.17327689107E+02  0.52829763074E+02  0.47000000000E+01 0.  1.
          5    1    4    4  503    0  0.34582051563E+02 -0.20151307261E+02 -0.49415120872E+02  0.63764705327E+02  0.47000000000E+01 0. -1.
         -5    1    3    3    0  502  0.16230437978E+02 -0.26905670720E+02 -0.93755101733E+02  0.98992178150E+02  0.47000000000E+01 0.  1.
<mgrwt>
<rscale>  0 0.96912032E+02</rscale>
<asrwt>0</asrwt>
<pdfrwt beam="1">  1        2 0.31201036E-01 0.97352820E+02</pdfrwt>
<pdfrwt beam="2">  1       -2 0.71146443E-02 0.97352820E+02</pdfrwt>
<totfact> 0.17234966E+04</totfact>
</mgrwt>
</event>
<event>
 8    1  0.6836165E-004  0.1029985E+03  0.7546771E-02  0.1274829E+00
          1   -1    0    0  501    0  0.00000000000E+00  0.00000000000E+00  0.31445727075E+03  0.31445727075E+03  0.00000000000E+00 0. -1.
         -1   -1    0    0    0  501 -0.00000000000E+00 -0.00000000000E+00 -0.44637338371E+02  0.44637338371E+02  0.00000000000E+00 0.  1.
         23    2    1    2    0    0 -0.28068430651E+02  0.39040992907E+02  0.22617305415E+03  0.24852151625E+03  0.91085990622E+02 0.  0.
         23    2    1    2    0    0  0.28068430651E+02 -0.39040992907E+02  0.43646878231E+02  0.11057309288E+03  0.89494820870E+02 0.  0.
          5    1    4    4  502    0  0.22715022624E+02  0.11152610881E+02  0.53094228359E+02  0.59003729266E+02  0.47000000000E+01 0. -1.
         -5    1    3    3    0  503  0.31195431763E+02  0.31299780791E+01  0.94144508329E+02  0.99338966041E+02  0.47000000000E+01 0.  1.
          5    1    3    3  503    0 -0.59263862414E+02  0.35911014828E+02  0.13202854582E+03  0.14918255021E+03  0.47000000000E+01 0. -1.
         -5    1    4    4    0  502  0.53534080270E+01 -0.50193603788E+02 -0.94473501281E+01  0.51569363610E+02  0.47000000000E+01 0.  1.
<mgrwt>
<rscale>  0 0.10264560E+03</rscale>
<asrwt>0</asrwt>
<pdfrwt beam="1">  1        1 0.48378040E-01 0.10299851E+03</pdfrwt>
<pdfrwt beam="2">  1       -1 0.68672830E-02 0.10299851E+03</pdfrwt>
<totfact> 0.83490769E+03</totfact>
</mgrwt>
</event>
<event>
 8    1  0.6836165E-004  0.1132806E+03  0.7546771E-02  0.1264007E+00
         -1   -1    0    0    0  501 -0.00000000000E+00  0.00000000000E+00  0.40269785021E+03  0.40269785021E+03  0.00000000000E+00 0.  1.
          1   -1    0    0  501    0  0.00000000000E+00 -0.00000000000E+00 -0.14501758261E+03  0.14501758261E+03  0.00000000000E+00 0. -1.
         23    2    1    2    0    0  0.14018263091E+02  0.78304661259E+00  0.37818377989E+03  0.39478532810E+03  0.11240711299E+03 0.  0.
         23    2    1    2    0    0 -0.14018263091E+02 -0.78304661259E+00 -0.12050351228E+03  0.15293010472E+03  0.93109589176E+02 0.  0.
          5    1    3    3  502    0 -0.49345150262E+01  0.34764790604E+02  0.36515209208E+02  0.50876228318E+02  0.47000000000E+01 0. -1.
         -5    1    4    4    0  503  0.78903874702E+01 -0.38334441938E+02 -0.93665983116E+02  0.10162280279E+03  0.47000000000E+01 0.  1.
          5    1    4    4  503    0 -0.21908650562E+02  0.37551395325E+02 -0.26837529163E+02  0.51307301936E+02  0.47000000000E+01 0. -1.
         -5    1    3    3    0  502  0.18952778118E+02 -0.33981743992E+02  0.34166857068E+03  0.34390909978E+03  0.47000000000E+01 0.  1.
<mgrwt>
<rscale>  0 0.10816473E+03</rscale>
<asrwt>0</asrwt>
<pdfrwt beam="1">  1        1 0.22310398E-01 0.11328055E+03</pdfrwt>
<pdfrwt beam="2">  1       -1 0.61953515E-01 0.11328055E+03</pdfrwt>
<totfact> 0.60366404E+02</totfact>
</mgrwt>
</event>
<event>
 8    1  0.6836165E-004  0.9554638E+02  0.7546771E-02  0.1290337E+00
          3   -1    0    0  501    0  0.00000000000E+00  0.00000000000E+00  0.55153770196E+02  0.55153770196E+02  0.00000000000E+00 0. -1.
         -3   -1    0    0    0  501 -0.00000000000E+00 -0.00000000000E+00 -0.21821844825E+03  0.21821844825E+03  0.00000000000E+00 0.  1.
         23    2    1    2    0    0  0.22282347690E+02 -0.12597375229E+02 -0.14968083516E+03  0.17757664164E+03  0.92053866636E+02 0.  0.
         23    2    1    2    0    0 -0.22282347690E+02  0.12597375229E+02 -0.13383842900E+02  0.95795576806E+02  0.91337114054E+02 0.  0.
          5    1    4    4  502    0 -0.73060409030E+01  0.51772557318E+02 -0.46793759540E+01  0.52704482582E+02  0.47000000000E+01 0. -1.
         -5    1    4    4    0  502 -0.14976306787E+02 -0.39175182089E+02 -0.87044669455E+01  0.43091094224E+02  0.47000000000E+01 0.  1.
          5    1    3    3  503    0 -0.24291666177E+02 -0.70014176881E+01 -0.60627415641E+01  0.26418776099E+02  0.47000000000E+01 0. -1.
         -5    1    3    3    0  503  0.46574013867E+02 -0.55959575413E+01 -0.14361809359E+03  0.15115786555E+03  0.47000000000E+01 0.  1.
<mgrwt>
<rscale>  0 0.95373323E+02</rscale>
<asrwt>0</asrwt>
<pdfrwt beam="1">  1        3 0.84851953E-02 0.95546383E+02</pdfrwt>
<pdfrwt beam="2">  1       -3 0.33572069E-01 0.95546383E+02</pdfrwt>
<totfact> 0.18093193E+03</totfact>
</mgrwt>
</event>
<event>
 8    1  0.6836165E-004  0.1040075E+03  0.7546771E-02  0.1276130E+00
          1   -1    0    0  501    0  0.00000000000E+00  0.00000000000E+00  0.25026105218E+03  0.25026105218E+03  0.00000000000E+00 0. -1.
         -1   -1    0    0    0  501 -0.00000000000E+00 -0.00000000000E+00 -0.58112454173E+02  0.58112454173E+02  0.00000000000E+00 0.  1.
         23    2    1    2    0    0 -0.24499242731E+02  0.40759761862E+02  0.17940744566E+03  0.20358849315E+03  0.83664041883E+02 0.  0.
         23    2    1    2    0    0  0.24499242731E+02 -0.40759761862E+02  0.12741152348E+02  0.10478501320E+03  0.92498599705E+02 0.  0.
          5    1    4    4  502    0  0.46115135746E+01 -0.68823641137E+02  0.11162793343E+02  0.70033260613E+02  0.47000000000E+01 0. -1.
         -5    1    4    4    0  502  0.19887729156E+02  0.28063879275E+02  0.15783590050E+01  0.34751752591E+02  0.47000000000E+01 0.  1.
          5    1    3    3  503    0  0.26502735643E+02 -0.24898397323E+01  0.72796159743E+02  0.77652850377E+02  0.47000000000E+01 0. -1.
         -5    1    3    3    0  503 -0.51001978374E+02  0.43249601594E+02  0.10661128592E+03  0.12593564278E+03  0.47000000000E+01 0.  1.
<mgrwt>
<rscale>  0 0.10200752E+03</rscale>
<asrwt>0</asrwt>
<pdfrwt beam="1">  1        1 0.38501700E-01 0.10400751E+03</pdfrwt>
<pdfrwt beam="2">  1       -1 0.89403777E-02 0.10400751E+03</pdfrwt>
<totfact> 0.74485399E+03</totfact>
</mgrwt>
</event>
<event>
 8    1  0.6836165E-004  0.1203479E+03  0.7546771E-02  0.1245058E+00
          3   -1    0    0  501    0  0.00000000000E+00  0.00000000000E+00  0.35046819019E+03  0.35046819019E+03  0.00000000000E+00 0. -1.
         -3   -1    0    0    0  501 -0.00000000000E+00 -0.00000000000E+00 -0.49734560533E+02  0.49734560533E+02  0.00000000000E+00 0.  1.
         23    2    1    2    0    0 -0.33620155293E+02  0.59522297857E+02  0.23899754002E+03  0.26494391401E+03  0.91663704088E+02 0.  0.
         23    2    1    2    0    0  0.33620155293E+02 -0.59522297857E+02  0.61736089630E+02  0.13525883671E+03  0.99047409669E+02 0.  0.
          5    1    3    3  502    0  0.54257542971E+01  0.67263026950E+02  0.18974725776E+03  0.20144444750E+03  0.47000000000E+01 0. -1.
         -5    1    4    4    0  503  0.53208393074E+02 -0.30036005894E+02  0.75277302718E+02  0.97067281038E+02  0.47000000000E+01 0.  1.
          5    1    4    4  503    0 -0.19588237780E+02 -0.29486291963E+02 -0.13541213088E+02  0.38191555676E+02  0.47000000000E+01 0. -1.
         -5    1    3    3    0  502 -0.39045909590E+02 -0.77407290925E+01  0.49250282268E+02  0.63499466503E+02  0.47000000000E+01 0.  1.
<mgrwt>
<rscale>  0 0.11881900E+03</rscale>
<asrwt>0</asrwt>
<pdfrwt beam="1">  1        3 0.53918181E-01 0.12034786E+03</pdfrwt>
<pdfrwt beam="2">  1       -3 0.76514711E-02 0.12034786E+03</pdfrwt>
<totfact> 0.89144008E+02</totfact>
</mgrwt>
</event>
<event>
 8    1  0.6836165E-004  0.1104468E+03  0.7546771E-02  0.1260450E+00
          1   -1    0    0  501    0  0.00000000000E+00  0.00000000000E+00  0.41901533807E+03  0.41901533807E+03  0.00000000000E+00 0. -1.
         -1   -1    0    0    0  501 -0.00000000000E+00 -0.00000000000E+00 -0.28995069830E+02  0.28995069830E+02  0.00000000000E+00 0.  1.
         23    2    1    2    0    0  0.60056686361E+02  0.65952562414E+01  0.17426177816E+03  0.20631445412E+03  0.92456387922E+02 0.  0.
         23    2    1    2    0    0 -0.60056686361E+02 -0.65952562414E+01  0.21575849007E+03  0.24169595378E+03  0.90636113401E+02 0.  0.
          5    1    4    4  502    0 -0.14840103468E+02  0.36664579102E+02  0.12622175561E+03  0.13235762774E+03  0.47000000000E+01 0. -1.
         -5    1    3    3    0  503  0.38341898929E+02  0.84464927826E+01  0.10323244510E+02  0.40866903859E+02  0.47000000000E+01 0.  1.
          5    1    3    3  503    0  0.21714787431E+02 -0.18512365412E+01  0.16393853365E+03  0.16544755026E+03  0.47000000000E+01 0. -1.
         -5    1    4    4    0  502 -0.45216582893E+02 -0.43259835344E+02  0.89536734462E+02  0.10933832604E+03  0.47000000000E+01 0.  1.
<mgrwt>
<rscale>  0 0.11006498E+03</rscale>
<asrwt>0</asrwt>
<pdfrwt beam="1">  1        1 0.64463894E-01 0.11044676E+03</pdfrwt>
<pdfrwt beam="2">  1       -1 0.44607803E-02 0.11044676E+03</pdfrwt>
<totfact> 0.11113678E+04</totfact>
</mgrwt>
</event>
<event>
 8    1  0.6836165E-004  0.1172831E+03  0.7546771E-02  0.1249447E+00
         -1   -1    0    0    0  501 -0.00000000000E+00  0.00000000000E+00  0.93251040126E+02  0.93251040126E+02  0.00000000000E+00 0.  1.
          1   -1    0    0  501    0  0.00000000000E+00 -0.00000000000E+00 -0.17607034048E+03  0.17607034048E+03  0.00000000000E+00 0. -1.
         23    2    1    2    0    0  0.21682004610E+02 -0.61282033382E+02 -0.99742958226E+02  0.15082358444E+03  0.92593190719E+02 0.  0.
         23    2    1    2    0    0 -0.21682004610E+02  0.61282033382E+02  0.16923657870E+02  0.11849779617E+03  0.97620287657E+02 0.  0.
          5    1    3    3  502    0 -0.24016251281E+02 -0.50762611725E+02 -0.83967716510E+02  0.10112512295E+03  0.47000000000E+01 0. -1.
         -5    1    4    4    0  503 -0.29269076218E+01  0.85067664386E+02  0.20382124811E+02  0.87650415425E+02  0.47000000000E+01 0.  1.
          5    1    4    4  503    0 -0.18755096989E+02 -0.23785631004E+02 -0.34584669415E+01  0.30847380746E+02  0.47000000000E+01 0. -1.
         -5    1    3    3    0  502  0.45698255892E+02 -0.10519421657E+02 -0.15775241717E+02  0.49698461493E+02  0.47000000000E+01 0.  1.
<mgrwt>
<rscale>  0 0.11623151E+03</rscale>
<asrwt>0</asrwt>
<pdfrwt beam="1">  1        1 0.27087744E-01 0.11728307E+03</pdfrwt>
<pdfrwt beam="2">  1       -1 0.14346314E-01 0.11728307E+03</pdfrwt>
<totfact> 0.56234991E+03</totfact>
</mgrwt>
</event>
<event>
 8    1  0.6836165E-004  0.9148980E+02  0.7546771E-02  0.1299648E+00
          1   -1    0    0  501    0  0.00000000000E+00  0.00000000000E+00  0.18205878245E+02  0.18205878245E+02  0.00000000000E+00 0. -1.
         -1   -1    0    0    0  501 -0.00000000000E+00 -0.00000000000E+00 -0.47495520852E+03  0.47495520852E+03  0.00000000000E+00 0.  1.
         23    2    1    2    0    0 -0.75409379927E+01 -0.76982932322E+01 -0.27599231771E+03  0.29056918086E+03  0.90236134470E+02 0.  0.
         23    2    1    2    0    0  0.75409379927E+01  0.76982932322E+01 -0.18075701256E+03  0.20259190591E+03  0.90852921162E+02 0.  0.
          5    1    3    3  502    0 -0.73718314591E+01  0.20259542412E+02 -0.12113585437E+02  0.25171847567E+02  0.47000000000E+01 0. -1.
         -5    1    4    4    0  503  0.44840607100E+02 -0.35721600207E+00 -0.55165104527E+02  0.71246658910E+02  0.47000000000E+01 0.  1.
          5    1    4    4  503    0 -0.37299669107E+02  0.80555092342E+01 -0.12559190804E+03  0.13134524700E+03  0.47000000000E+01 0. -1.
         -5    1    3    3    0  502 -0.16910653365E+00 -0.27957835644E+02 -0.26387873228E+03  0.26539733329E+03  0.47000000000E+01 0.  1.
<mgrwt>
<rscale>  0 0.91336294E+02</rscale>
<asrwt>0</asrwt>
<pdfrwt beam="1">  1        1 0.28009044E-02 0.91489796E+02</pdfrwt>
<pdfrwt beam="2">  1       -1 0.73070030E-01 0.91489796E+02</pdfrwt>
<totfact> 0.67688644E+03</totfact>
</mgrwt>
</event>
<event>
 8    1  0.6836165E-004  0.1202297E+03  0.7546771E-02  0.1243634E+00
         -1   -1    0    0    0  501 -0.00000000000E+00  0.00000000000E+00  0.48114036369E+02  0.48114036369E+02  0.00000000000E+00 0.  1.
          1   -1    0    0  501    0  0.00000000000E+00 -0.00000000000E+00 -0.30246309681E+03  0.30246309681E+03  0.00000000000E+00 0. -1.
         23    2    1    2    0    0 -0.33478128792E+02 -0.66256321940E+02 -0.15593547259E+03  0.19690363902E+03  0.94575293524E+02 0.  0.
         23    2    1    2    0    0  0.33478128792E+02  0.66256321940E+02 -0.98413587856E+02  0.15367349416E+03  0.91758504934E+02 0.  0.
          5    1    3    3  502    0 -0.85637859088E+01 -0.76724583078E+02 -0.15010679761E+03  0.16886130630E+03  0.47000000000E+01 0. -1.
         -5    1    4    4    0  503 -0.10592634921E+01  0.77084270647E+02 -0.46299001002E+02  0.90048844046E+02  0.47000000000E+01 0.  1.
          5    1    4    4  503    0  0.34537392285E+02 -0.10827948707E+02 -0.52114586853E+02  0.63624650112E+02  0.47000000000E+01 0. -1.
         -5    1    3    3    0  502 -0.24914342884E+02  0.10468261138E+02 -0.58286749820E+01  0.28042332724E+02  0.47000000000E+01 0.  1.
<mgrwt>
<rscale>  0 0.11967510E+03</rscale>
<asrwt>0</asrwt>
<pdfrwt beam="1">  1        1 0.46532784E-01 0.12022966E+03</pdfrwt>
<pdfrwt beam="2">  1       -1 0.74021594E-02 0.12022966E+03</pdfrwt>
<totfact> 0.79222082E+03</totfact>
</mgrwt>
</event>
<event>
 8    1  0.6836165E-004  0.1042293E+03  0.7546771E-02  0.1271881E+00
         -2   -1    0    0    0  501 -0.00000000000E+00  0.00000000000E+00  0.13997831751E+02  0.13997831751E+02  0.00000000000E+00 0.  1.
          2   -1    0    0  501    0  0.00000000000E+00 -0.00000000000E+00 -0.94435211699E+03  0.94435211699E+03  0.00000000000E+00 0. -1.
         23    2    1    2    0    0 -0.22951325030E+00 -0.49974484186E+02 -0.26168542437E+03  0.28167889216E+03  0.91467126433E+02 0.  0.
         23    2    1    2    0    0  0.22951325030E+00  0.49974484186E+02 -0.66866886088E+03  0.67667105658E+03  0.90929486777E+02 0.  0.
          5    1    4    4  502    0  0.48411082848E+01  0.74325228970E+02 -0.56836544254E+03  0.57324431289E+03  0.47000000000E+01 0. -1.
         -5    1    4    4    0  502 -0.46115950345E+01 -0.24350744784E+02 -0.10030341833E+03  0.10342674369E+03  0.47000000000E+01 0.  1.
          5    1    3    3  503    0 -0.19454331818E+02  0.72852307918E+01 -0.17281660522E+03  0.17412413576E+03  0.47000000000E+01 0. -1.
         -5    1    3    3    0  503  0.19224818567E+02 -0.57259714978E+02 -0.88868819143E+02  0.10755475640E+03  0.47000000000E+01 0.  1.
<mgrwt>
<rscale>  0 0.10411118E+03</rscale>
<asrwt>0</asrwt>
<pdfrwt beam="1">  1        2 0.14528492E+00 0.10422925E+03</pdfrwt>
<pdfrwt beam="2">  1       -2 0.21535129E-02 0.10422925E+03</pdfrwt>
<totfact> 0.18422102E+04</totfact>
</mgrwt>
</event>
<event>
 8    1  0.6836165E-004  0.1096576E+03  0.7546771E-02  0.1267927E+00
         -1   -1    0    0    0  501 -0.00000000000E+00  0.00000000000E+00  0.35650909707E+03  0.35650909707E+03  0.00000000000E+00 0.  1.
          1   -1    0    0  501    0  0.00000000000E+00 -0.00000000000E+00 -0.29732875803E+02  0.29732875803E+02  0.00000000000E+00 0. -1.
         23    2    1    2    0    0 -0.17857314812E+02  0.26075524124E+02  0.17925543499E+03  0.21013636761E+03  0.10500459689E+03 0.  0.
         23    2    1    2    0    0  0.17857314812E+02 -0.26075524124E+02  0.14752078627E+03  0.17610560525E+03  0.90840437970E+02 0.  0.
          5    1    3    3  502    0  0.51644466184E+01 -0.39118656202E+02  0.54846293852E+02  0.67728477919E+02  0.47000000000E+01 0. -1.
         -5    1    3    3    0  502 -0.23021761431E+02  0.65194180325E+02  0.12440914114E+03  0.14240788970E+03  0.47000000000E+01 0.  1.
          5    1    4    4  503    0 -0.29866943567E+02  0.12484030664E+02  0.35330998199E+02  0.48148258259E+02  0.47000000000E+01 0. -1.
         -5    1    4    4    0  503  0.47724258379E+02 -0.38559554788E+02  0.11218978807E+03  0.12795734700E+03  0.47000000000E+01 0.  1.
<mgrwt>
<rscale>  0 0.10612101E+03</rscale>
<asrwt>0</asrwt>
<pdfrwt beam="1">  1        1 0.45742888E-02 0.10965757E+03</pdfrwt>
<pdfrwt beam="2">  1       -1 0.54847550E-01 0.10965757E+03</pdfrwt>
<totfact> 0.60814283E+03</totfact>
</mgrwt>
</event>
<event>
 8    1  0.6836165E-004  0.1510752E+03  0.7546771E-02  0.1199636E+00
          4   -1    0    0  501    0  0.00000000000E+00  0.00000000000E+00  0.30087691627E+03  0.30087691627E+03  0.00000000000E+00 0. -1.
         -4   -1    0    0    0  501 -0.00000000000E+00 -0.00000000000E+00 -0.22040754764E+03  0.22040754764E+03  0.00000000000E+00 0.  1.
         23    2    1    2    0    0 -0.24556830690E+02  0.11522726175E+03 -0.17148294031E+03  0.22750957552E+03  0.92053508109E+02 0.  0.
         23    2    1    2    0    0  0.24556830690E+02 -0.11522726175E+03  0.25195230893E+03  0.29377488838E+03  0.94569335857E+02 0.  0.
          5    1    4    4  502    0 -0.71675147797E+01 -0.11398583247E+03  0.22282302961E+03  0.25043229783E+03  0.47000000000E+01 0. -1.
         -5    1    3    3    0  503 -0.24339627518E+02  0.23034474661E+02 -0.11364110939E+03  0.11857232490E+03  0.47000000000E+01 0.  1.
          5    1    3    3  503    0 -0.21720317155E+00  0.92192787089E+02 -0.57841830920E+02  0.10893725062E+03  0.47000000000E+01 0. -1.
         -5    1    4    4    0  502  0.31724345469E+02 -0.12414292824E+01  0.29129279324E+02  0.43342590555E+02  0.47000000000E+01 0.  1.
<mgrwt>
<rscale>  0 0.15068319E+03</rscale>
<asrwt>0</asrwt>
<pdfrwt beam="1">  1        4 0.46288757E-01 0.15107521E+03</pdfrwt>
<pdfrwt beam="2">  1       -4 0.33908853E-01 0.15107521E+03</pdfrwt>
<totfact> 0.65236170E+01</totfact>
</mgrwt>
</event>
<event>
 8    1  0.6836165E-004  0.1348599E+03  0.7546771E-02  0.1221747E+00
         -1   -1    0    0    0  501 -0.00000000000E+00  0.00000000000E+00  0.25824501175E+02  0.25824501175E+02  0.00000000000E+00 0.  1.
          1   -1    0    0  501    0  0.00000000000E+00 -0.00000000000E+00 -0.86171940679E+03  0.86171940679E+03  0.00000000000E+00 0. -1.
         23    2    1    2    0    0  0.86228469222E+02  0.47052246503E+02 -0.62350080043E+03  0.63791882829E+03  0.92400868756E+02 0.  0.
         23    2    1    2    0    0 -0.86228469222E+02 -0.47052246503E+02 -0.21239410518E+03  0.24962507967E+03  0.86903174160E+02 0.  0.
          5    1    4    4  502    0 -0.85948743204E+02 -0.67955038466E+02 -0.18039104596E+03  0.21111156571E+03  0.47000000000E+01 0. -1.
         -5    1    3    3    0  503  0.96830474243E+02  0.16945128662E+02 -0.52860943383E+03  0.53769257170E+03  0.47000000000E+01 0.  1.
          5    1    3    3  503    0 -0.10602005021E+02  0.30107117841E+02 -0.94891366603E+02  0.10022625659E+03  0.47000000000E+01 0. -1.
         -5    1    4    4    0  502 -0.27972601786E+00  0.20902791963E+02 -0.32003059219E+02  0.38513513964E+02  0.47000000000E+01 0.  1.
<mgrwt>
<rscale>  0 0.13392375E+03</rscale>
<asrwt>0</asrwt>
<pdfrwt beam="1">  1        1 0.13257222E+00 0.13485987E+03</pdfrwt>
<pdfrwt beam="2">  1       -1 0.39730000E-02 0.13485987E+03</pdfrwt>
<totfact> 0.49539426E+03</totfact>
</mgrwt>
</event>
<event>
 8    1  0.6836165E-004  0.1523167E+03  0.7546771E-02  0.1200149E+00
          1   -1    0    0  501    0  0.00000000000E+00  0.00000000000E+00  0.80793606799E+03  0.80793606799E+03  0.00000000000E+00 0. -1.
         -1   -1    0    0    0  501 -0.00000000000E+00 -0.00000000000E+00 -0.27276475497E+02  0.27276475497E+02  0.00000000000E+00 0.  1.
         23    2    1    2    0    0  0.46077715090E+02 -0.10362056280E+03  0.39895605375E+03  0.42424055133E+03  0.89183718847E+02 0.  0.
         23    2    1    2    0    0 -0.46077715090E+02  0.10362056280E+03  0.38170353874E+03  0.41097199216E+03  0.10168583964E+03 0.  0.
          5    1    4    4  502    0 -0.52897335840E+02  0.28858233137E+02  0.26735240137E+03  0.27409911032E+03  0.47000000000E+01 0. -1.
         -5    1    3    3    0  503  0.23527410394E+02 -0.61310570332E+02  0.89775716232E+02  0.11132966496E+03  0.47000000000E+01 0.  1.
          5    1    3    3  503    0  0.22550304695E+02 -0.42309992468E+02  0.30918033752E+03  0.31291088637E+03  0.47000000000E+01 0. -1.
         -5    1    4    4    0  502  0.68196207507E+01  0.74762329663E+02  0.11435113737E+03  0.13687288184E+03  0.47000000000E+01 0.  1.
<mgrwt>
<rscale>  0 0.15026417E+03</rscale>
<asrwt>0</asrwt>
<pdfrwt beam="1">  1        1 0.12429784E+00 0.15231673E+03</pdfrwt>
<pdfrwt beam="2">  1       -1 0.41963815E-02 0.15231673E+03</pdfrwt>
<totfact> 0.50734524E+03</totfact>
</mgrwt>
</event>
<event>
 8    1  0.6836165E-004  0.1093882E+03  0.7546771E-02  0.1263768E+00
          1   -1    0    0  501    0  0.00000000000E+00  0.00000000000E+00  0.98239576382E+02  0.98239576382E+02  0.00000000000E+00 0. -1.
         -1   -1    0    0    0  501 -0.00000000000E+00 -0.00000000000E+00 -0.14394197712E+03  0.14394197712E+03  0.00000000000E+00 0.  1.
         23    2    1    2    0    0  0.63776277271E+01 -0.55519820606E+02  0.29869550359E+02  0.10922703007E+03  0.88967575236E+02 0.  0.
         23    2    1    2    0    0 -0.63776277271E+01  0.55519820606E+02 -0.75571951102E+02  0.13295452344E+03  0.94035423612E+02 0.  0.
          5    1    3    3  502    0 -0.22218937760E+02 -0.65962744418E+02  0.55564999882E+01  0.69983780538E+02  0.47000000000E+01 0. -1.
         -5    1    4    4    0  503 -0.97855517312E+01  0.21987895273E+02 -0.91967175493E+02  0.95180228668E+02  0.47000000000E+01 0.  1.
          5    1    4    4  503    0  0.34079240041E+01  0.33531925333E+02  0.16395224391E+02  0.37774294770E+02  0.47000000000E+01 0. -1.
         -5    1    3    3    0  502  0.28596565487E+02  0.10442923812E+02  0.24313050370E+02  0.39243249530E+02  0.47000000000E+01 0.  1.
<mgrwt>
<rscale>  0 0.10829066E+03</rscale>
<asrwt>0</asrwt>
<pdfrwt beam="1">  1        1 0.15113781E-01 0.10938823E+03</pdfrwt>
<pdfrwt beam="2">  1       -1 0.22144919E-01 0.10938823E+03</pdfrwt>
<totfact> 0.58865044E+03</totfact>
</mgrwt>
</event>
<event>
 8    1  0.6836165E-004  0.1797673E+03  0.7546771E-02  0.1168541E+00
          1   -1    0    0  501    0  0.00000000000E+00  0.00000000000E+00  0.18675194718E+03  0.18675194718E+03  0.00000000000E+00 0. -1.
         -1   -1    0    0    0  501 -0.00000000000E+00 -0.00000000000E+00 -0.44979659601E+03  0.44979659601E+03  0.00000000000E+00 0.  1.
         23    2    1    2    0    0  0.15749789912E+02 -0.15513035079E+03 -0.38178947777E+03  0.42110339558E+03  0.85155051626E+02 0.  0.
         23    2    1    2    0    0 -0.15749789912E+02  0.15513035079E+03  0.11874482895E+03  0.21544514761E+03  0.89458345649E+02 0.  0.
          5    1    4    4  502    0 -0.51355972907E+02  0.11378948775E+03  0.85388048739E+02  0.15132313882E+03  0.47000000000E+01 0. -1.
         -5    1    3    3    0  503  0.48948751607E+02 -0.78411659706E+02 -0.22650505031E+03  0.24468550525E+03  0.47000000000E+01 0.  1.
          5    1    3    3  503    0 -0.33198961695E+02 -0.76718691086E+02 -0.15528442746E+03  0.17641789033E+03  0.47000000000E+01 0. -1.
         -5    1    4    4    0  502  0.35606182996E+02  0.41340863043E+02  0.33356780210E+02  0.64122008785E+02  0.47000000000E+01 0.  1.
<mgrwt>
<rscale>  0 0.17923940E+03</rscale>
<asrwt>0</asrwt>
<pdfrwt beam="1">  1        1 0.28731069E-01 0.17976729E+03</pdfrwt>
<pdfrwt beam="2">  1       -1 0.69199475E-01 0.17976729E+03</pdfrwt>
<totfact> 0.35450792E+02</totfact>
</mgrwt>
</event>
<event>
 8    1  0.6836165E-004  0.1665958E+03  0.7546771E-02  0.1181797E+00
          1   -1    0    0  501    0  0.00000000000E+00  0.00000000000E+00  0.96960118308E+03  0.96960118308E+03  0.00000000000E+00 0. -1.
         -1   -1    0    0    0  501 -0.00000000000E+00 -0.00000000000E+00 -0.78955858314E+02  0.78955858314E+02  0.00000000000E+00 0.  1.
         23    2    1    2    0    0 -0.13754168706E+03  0.20846273450E+02  0.86421310227E+03  0.87987740350E+03  0.89261841011E+02 0.  0.
         23    2    1    2    0    0  0.13754168706E+03 -0.20846273450E+02  0.26432222500E+02  0.16867963790E+03  0.91661742605E+02 0.  0.
          5    1    4    4  502    0  0.66465148293E+02  0.14682555329E+02 -0.26380987912E+02  0.73152169427E+02  0.47000000000E+01 0. -1.
         -5    1    4    4    0  502  0.71076538771E+02 -0.35528828779E+02  0.52813210413E+02  0.95527468470E+02  0.47000000000E+01 0.  1.
          5    1    3    3  503    0 -0.12396500521E+03  0.44836767252E+02  0.78178591576E+03  0.79283602737E+03  0.47000000000E+01 0. -1.
         -5    1    3    3    0  503 -0.13576681859E+02 -0.23990493802E+02  0.82427186505E+02  0.87041376128E+02  0.47000000000E+01 0.  1.
<mgrwt>
<rscale>  0 0.16626775E+03</rscale>
<asrwt>0</asrwt>
<pdfrwt beam="1">  1        1 0.14916940E+00 0.16659579E+03</pdfrwt>
<pdfrwt beam="2">  1       -1 0.12147056E-01 0.16659579E+03</pdfrwt>
<totfact> 0.76452384E+02</totfact>
</mgrwt>
</event>
<event>
 8    1  0.6836165E-004  0.9078766E+02  0.7546771E-02  0.1303317E+00
         -2   -1    0    0    0  501 -0.00000000000E+00  0.00000000000E+00  0.82068436742E+02  0.82068436742E+02  0.00000000000E+00 0.  1.
          2   -1    0    0  501    0  0.00000000000E+00 -0.00000000000E+00 -0.27409612025E+03  0.27409612025E+03  0.00000000000E+00 0. -1.
         23    2    1    2    0    0  0.97991558133E+01 -0.92961000378E+00  0.48167163427E+02  0.99384564382E+02  0.86373192458E+02 0.  0.
         23    2    1    2    0    0 -0.97991558133E+01  0.92961000378E+00 -0.24019484693E+03  0.25677999261E+03  0.90252492932E+02 0.  0.
          5    1    4    4  502    0 -0.48001675548E+02 -0.12550036406E+02 -0.13981548895E+03  0.14843222433E+03  0.47000000000E+01 0. -1.
         -5    1    3    3    0  503  0.43754742743E+02  0.12986281148E+02  0.41348964249E+02  0.61765264146E+02  0.47000000000E+01 0.  1.
          5    1    3    3  503    0 -0.33955586929E+02 -0.13915891152E+02  0.68181991782E+01  0.37619300237E+02  0.47000000000E+01 0. -1.
         -5    1    4    4    0  502  0.38202519735E+02  0.13479646410E+02 -0.10037935799E+03  0.10834776828E+03  0.47000000000E+01 0.  1.
<mgrwt>
<rscale>  0 0.89808070E+02</rscale>
<asrwt>0</asrwt>
<pdfrwt beam="1">  1        2 0.42168633E-01 0.90787665E+02</pdfrwt>
<pdfrwt beam="2">  1       -2 0.12625914E-01 0.90787665E+02</pdfrwt>
<totfact> 0.51204363E+03</totfact>
</mgrwt>
</event>
<event>
 8    1  0.6836165E-004  0.1055198E+03  0.7546771E-02  0.1272476E+00
         -1   -1    0    0    0  501 -0.00000000000E+00  0.00000000000E+00  0.37955163830E+03  0.37955163830E+03  0.00000000000E+00 0.  1.
          1   -1    0    0  501    0  0.00000000000E+00 -0.00000000000E+00 -0.41578627768E+02  0.41578627768E+02  0.00000000000E+00 0. -1.
         23    2    1    2    0    0 -0.45334787263E+02 -0.33911453735E+01  0.28776992450E+03  0.30427661356E+03  0.87783741716E+02 0.  0.
         23    2    1    2    0    0  0.45334787263E+02  0.33911453735E+01  0.50203086028E+02  0.11685365250E+03  0.95224384765E+02 0.  0.
          5    1    3    3  502    0 -0.19676850082E+02  0.10838879573E+02  0.10191063659E+02  0.25111899929E+02  0.47000000000E+01 0. -1.
         -5    1    3    3    0  502 -0.25657937180E+02 -0.14230024947E+02  0.27757886085E+03  0.27916471364E+03  0.47000000000E+01 0.  1.
          5    1    4    4  503    0  0.64665477361E+02  0.25810902031E+02  0.16420019711E+02  0.71690541030E+02  0.47000000000E+01 0. -1.
         -5    1    4    4    0  503 -0.19330690098E+02 -0.22419756657E+02  0.33783066317E+02  0.45163111474E+02  0.47000000000E+01 0.  1.
<mgrwt>
<rscale>  0 0.10381316E+03</rscale>
<asrwt>0</asrwt>
<pdfrwt beam="1">  1        1 0.63967122E-02 0.10551979E+03</pdfrwt>
<pdfrwt beam="2">  1       -1 0.58392558E-01 0.10551979E+03</pdfrwt>
<totfact> 0.34274424E+03</totfact>
</mgrwt>
</event>
<event>
 8    1  0.6836165E-004  0.9589251E+02  0.7546771E-02  0.1289444E+00
          2   -1    0    0  501    0  0.00000000000E+00  0.00000000000E+00  0.38387358714E+03  0.38387358714E+03  0.00000000000E+00 0. -1.
         -2   -1    0    0    0  501 -0.00000000000E+00 -0.00000000000E+00 -0.25558406365E+02  0.25558406365E+02  0.00000000000E+00 0.  1.
         23    2    1    2    0    0 -0.27197638787E+02  0.55752098971E+01  0.23189751282E+03  0.25076000518E+03  0.91287070420E+02 0.  0.
         23    2    1    2    0    0  0.27197638787E+02 -0.55752098971E+01  0.12641766796E+03  0.15867198833E+03  0.91785503139E+02 0.  0.
          5    1    4    4  502    0  0.21555315548E+02  0.34414766832E+02  0.10508628449E+03  0.11275737223E+03  0.47000000000E+01 0. -1.
         -5    1    3    3    0  503  0.25468462218E+02 -0.17827061635E+02  0.43392081065E+02  0.53585533434E+02  0.47000000000E+01 0.  1.
          5    1    3    3  503    0 -0.52666101004E+02  0.23402271532E+02  0.18850543176E+03  0.19717447175E+03  0.47000000000E+01 0. -1.
         -5    1    4    4    0  502  0.56423232388E+01 -0.39989976729E+02  0.21331383464E+02  0.45914616092E+02  0.47000000000E+01 0.  1.
<mgrwt>
<rscale>  0 0.95773041E+02</rscale>
<asrwt>0</asrwt>
<pdfrwt beam="1">  1        2 0.59057471E-01 0.95892508E+02</pdfrwt>
<pdfrwt beam="2">  1       -2 0.39320628E-02 0.95892508E+02</pdfrwt>
<totfact> 0.21311568E+04</totfact>
</mgrwt>
</event>
<event>
 8    1  0.6836165E-004  0.1176176E+03  0.7546771E-02  0.1247494E+00
         -1   -1    0    0    0  501 -0.00000000000E+00  0.00000000000E+00  0.11607410507E+02  0.11607410507E+02  0.00000000000E+00 0.  1.
          1   -1    0    0  501    0  0.00000000000E+00 -0.00000000000E+00 -0.13018915188E+04  0.13018915188E+04  0.00000000000E+00 0. -1.
         23    2    1    2    0    0 -0.33150932005E+02 -0.66775657358E+02 -0.84202870491E+03  0.85006952895E+03  0.89710040919E+02 0.  0.
         23    2    1    2    0    0  0.33150932005E+02  0.66775657358E+02 -0.44825540342E+03  0.46342940040E+03  0.90972137212E+02 0.  0.
          5    1    4    4  502    0  0.23758432621E+02  0.45055015471E+02 -0.43036294021E+03  0.43339216404E+03  0.47000000000E+01 0. -1.
         -5    1    4    4    0  502  0.93924993847E+01  0.21720641886E+02 -0.17892463211E+02  0.30037236364E+02  0.47000000000E+01 0.  1.
          5    1    3    3  503    0 -0.36026617615E+02  0.11468187014E+02 -0.25841964890E+03  0.26121301926E+03  0.47000000000E+01 0. -1.
         -5    1    3    3    0  503  0.28756856098E+01 -0.78243844372E+02 -0.58360905601E+03  0.58885650969E+03  0.47000000000E+01 0.  1.
<mgrwt>
<rscale>  0 0.11737349E+03</rscale>
<asrwt>0</asrwt>
<pdfrwt beam="1">  1        1 0.20029110E+00 0.11761761E+03</pdfrwt>
<pdfrwt beam="2">  1       -1 0.17857546E-02 0.11761761E+03</pdfrwt>
<totfact> 0.76201122E+03</totfact>
</mgrwt>
</event>
<event>
 8    1  0.6836165E-004  0.1368162E+03  0.7546771E-02  0.1218803E+00
          1   -1    0    0  501    0  0.00000000000E+00  0.00000000000E+00  0.10023313733E+04  0.10023313733E+04  0.00000000000E+00 0. -1.
         -1   -1    0    0    0  501 -0.00000000000E+00 -0.00000000000E+00 -0.20702574710E+02  0.20702574710E+02  0.00000000000E+00 0.  1.
         23    2    1    2    0    0  0.37175287629E+02  0.94810481530E+02  0.67232236950E+03  0.68610207092E+03  0.91365495464E+02 0.  0.
         23    2    1    2    0    0 -0.37175287629E+02 -0.94810481530E+02  0.30930642907E+03  0.33693187708E+03  0.86496204019E+02 0.  0.
          5    1    4    4  502    0 -0.37350835849E+02 -0.27370237571E+02  0.22029560342E+03  0.22515873896E+03  0.47000000000E+01 0. -1.
         -5    1    4    4    0  502  0.17554822019E+00 -0.67440243959E+02  0.89010825652E+02  0.11177313812E+03  0.47000000000E+01 0.  1.
          5    1    3    3  503    0  0.57197981301E+02  0.55965365194E+02  0.55606490309E+03  0.56181313407E+03  0.47000000000E+01 0. -1.
         -5    1    3    3    0  503 -0.20022693672E+02  0.38845116336E+02  0.11625746642E+03  0.12428893685E+03  0.47000000000E+01 0.  1.
<mgrwt>
<rscale>  0 0.13600848E+03</rscale>
<asrwt>0</asrwt>
<pdfrwt beam="1">  1        1 0.15420479E+00 0.13681624E+03</pdfrwt>
<pdfrwt beam="2">  1       -1 0.31850123E-02 0.13681624E+03</pdfrwt>
<totfact> 0.53618499E+03</totfact>
</mgrwt>
</event>
<event>
 8    1  0.6836165E-004  0.1000995E+03  0.7546771E-02  0.1280191E+00
         -2   -1    0    0    0  501 -0.00000000000E+00  0.00000000000E+00  0.10506172289E+02  0.10506172289E+02  0.00000000000E+00 0.  1.
          2   -1    0    0  501    0  0.00000000000E+00 -0.00000000000E+00 -0.96029625649E+03  0.96029625649E+03  0.00000000000E+00 0. -1.
         23    2    1    2    0    0  0.38423462121E+02 -0.20524192506E+02 -0.42883918104E+03  0.44032173919E+03  0.89903202920E+02 0.  0.
         23    2    1    2    0    0 -0.38423462121E+02  0.20524192506E+02 -0.52095090316E+03  0.53048068958E+03  0.90123879160E+02 0.  0.
          5    1    4    4  502    0 -0.64986614368E+02  0.29273021797E+02 -0.39104797165E+03  0.39751827126E+03  0.47000000000E+01 0. -1.
         -5    1    3    3    0  503  0.57588034180E+02  0.30499013605E+01 -0.16815428088E+03  0.17783035668E+03  0.47000000000E+01 0.  1.
          5    1    3    3  503    0 -0.19164572060E+02 -0.23574093867E+02 -0.26068490015E+03  0.26249138251E+03  0.47000000000E+01 0. -1.
         -5    1    4    4    0  502  0.26563152247E+02 -0.87488292914E+01 -0.12990293151E+03  0.13296241832E+03  0.47000000000E+01 0.  1.
<mgrwt>
<rscale>  0 0.10004985E+03</rscale>
<asrwt>0</asrwt>
<pdfrwt beam="1">  1        2 0.14773792E+00 0.10009954E+03</pdfrwt>
<pdfrwt beam="2">  1       -2 0.16163338E-02 0.10009954E+03</pdfrwt>
<totfact> 0.27130683E+04</totfact>
</mgrwt>
</event>
<event>
 8    1  0.6836165E-004  0.1178600E+03  0.7546771E-02  0.1249002E+00
          1   -1    0    0  501    0  0.00000000000E+00  0.00000000000E+00  0.13927475796E+03  0.13927475796E+03  0.00000000000E+00 0. -1.
         -1   -1    0    0    0  501 -0.00000000000E+00 -0.00000000000E+00 -0.99645578661E+02  0.99645578661E+02  0.00000000000E+00 0.  1.
         23    2    1    2    0    0  0.61398769108E+02  0.29945977980E+02 -0.57576190955E+01  0.11262325518E+03  0.89354781544E+02 0.  0.
         23    2    1    2    0    0 -0.61398769108E+02 -0.29945977980E+02  0.45386798390E+02  0.12629708143E+03  0.96043848661E+02 0.  0.
          5    1    4    4  502    0 -0.28071339425E+02 -0.36199596448E+02  0.70243101196E+02  0.83991631403E+02  0.47000000000E+01 0. -1.
         -5    1    4    4    0  502 -0.33327429683E+02  0.62536184678E+01 -0.24856302806E+02  0.42305450032E+02  0.47000000000E+01 0.  1.
          5    1    3    3  503    0 -0.18254111242E+02 -0.89888388835E+01 -0.11154530699E+02  0.23675416719E+02  0.47000000000E+01 0. -1.
         -5    1    3    3    0  503  0.79652880350E+02  0.38934816864E+02  0.53969116030E+01  0.88947838463E+02  0.47000000000E+01 0.  1.
<mgrwt>
<rscale>  0 0.11649034E+03</rscale>
<asrwt>0</asrwt>
<pdfrwt beam="1">  1        1 0.21426886E-01 0.11786005E+03</pdfrwt>
<pdfrwt beam="2">  1       -1 0.15330089E-01 0.11786005E+03</pdfrwt>
<totfact> 0.68033736E+03</totfact>
</mgrwt>
</event>
<event>
 8    1  0.6836165E-004  0.1004197E+03  0.7546771E-02  0.1286625E+00
         -1   -1    0    0    0  501 -0.00000000000E+00  0.00000000000E+00  0.11911166464E+02  0.11911166464E+02  0.00000000000E+00 0.  1.
          1   -1    0    0  501    0  0.00000000000E+00 -0.00000000000E+00 -0.74915380617E+03  0.74915380617E+03  0.00000000000E+00 0. -1.
         23    2    1    2    0    0  0.18931369334E+02  0.34070434033E+02 -0.35641947454E+03  0.37029575866E+03  0.92546830473E+02 0.  0.
         23    2    1    2    0    0 -0.18931369334E+02 -0.34070434033E+02 -0.38082316517E+03  0.39076921398E+03  0.78454472421E+02 0.  0.
          5    1    4    4  502    0 -0.38806159108E+02 -0.47514927469E+02 -0.30343636479E+03  0.30961153692E+03  0.47000000000E+01 0. -1.
         -5    1    4    4    0  502  0.19874789774E+02  0.13444493437E+02 -0.77386800376E+02  0.81157677054E+02  0.47000000000E+01 0.  1.
          5    1    3    3  503    0  0.24607965031E+02 -0.27727100808E+02 -0.15725081926E+03  0.16162999171E+03  0.47000000000E+01 0. -1.
         -5    1    3    3    0  503 -0.56765956973E+01  0.61797534841E+02 -0.19916865528E+03  0.20866576695E+03  0.47000000000E+01 0.  1.
<mgrwt>
<rscale>  0 0.97049624E+02</rscale>
<asrwt>0</asrwt>
<pdfrwt beam="1">  1        1 0.11525446E+00 0.10041965E+03</pdfrwt>
<pdfrwt beam="2">  1       -1 0.18324868E-02 0.10041965E+03</pdfrwt>
<totfact> 0.18369991E+04</totfact>
</mgrwt>
</event>
<event>
 8    1  0.6836165E-004  0.9259370E+02  0.7546771E-02  0.1297301E+00
         -1   -1    0    0    0  501 -0.00000000000E+00  0.00000000000E+00  0.80778650242E+02  0.80778650242E+02  0.00000000000E+00 0.  1.
          1   -1    0    0  501    0  0.00000000000E+00 -0.00000000000E+00 -0.10776969692E+03  0.10776969692E+03  0.00000000000E+00 0. -1.
         23    2    1    2    0    0  0.80712869034E+01  0.12448230912E+02  0.18435716863E+01  0.91568816334E+02  0.90340164064E+02 0.  0.
         23    2    1    2    0    0 -0.80712869034E+01 -0.12448230912E+02 -0.28834618360E+02  0.96979530824E+02  0.91397429164E+02 0.  0.
          5    1    4    4  502    0  0.15964452088E+02  0.13622499477E+02 -0.50688313126E+02  0.55062067796E+02  0.47000000000E+01 0. -1.
         -5    1    3    3    0  503  0.47316499006E+02  0.18665549584E+02  0.55675134825E+01  0.51384248811E+02  0.47000000000E+01 0.  1.
          5    1    3    3  503    0 -0.39245212103E+02 -0.62173186722E+01 -0.37239417961E+01  0.40184567523E+02  0.47000000000E+01 0. -1.
         -5    1    4    4    0  502 -0.24035738991E+02 -0.26070730388E+02  0.21853694765E+02  0.41917463028E+02  0.47000000000E+01 0.  1.
<mgrwt>
<rscale>  0 0.92331733E+02</rscale>
<asrwt>0</asrwt>
<pdfrwt beam="1">  1        1 0.16579953E-01 0.92593705E+02</pdfrwt>
<pdfrwt beam="2">  1       -1 0.12427485E-01 0.92593705E+02</pdfrwt>
<totfact> 0.12755316E+04</totfact>
</mgrwt>
</event>
<event>
 8    1  0.6836165E-004  0.9450517E+02  0.7546771E-02  0.1294958E+00
          1   -1    0    0  501    0  0.00000000000E+00  0.00000000000E+00  0.26954473850E+03  0.26954473850E+03  0.00000000000E+00 0. -1.
         -1   -1    0    0    0  501 -0.00000000000E+00 -0.00000000000E+00 -0.66291837824E+02  0.66291837824E+02  0.00000000000E+00 0.  1.
         23    2    1    2    0    0  0.42415473270E-01 -0.12724210233E+02 -0.21115528956E+02  0.92377299062E+02  0.89026920051E+02 0.  0.
         23    2    1    2    0    0 -0.42415473270E-01  0.12724210233E+02  0.22436842963E+03  0.24345927726E+03  0.93644648239E+02 0.  0.
          5    1    3    3  502    0 -0.31309968651E+02 -0.64533150934E+01  0.21561315500E+02  0.38845073545E+02  0.47000000000E+01 0. -1.
         -5    1    4    4    0  503  0.38838972497E+02 -0.30068601328E+01  0.47428695630E+02  0.61555488477E+02  0.47000000000E+01 0.  1.
          5    1    4    4  503    0 -0.38881387970E+02  0.15731070366E+02  0.17693973400E+03  0.18190378878E+03  0.47000000000E+01 0. -1.
         -5    1    3    3    0  502  0.31352384124E+02 -0.62708951394E+01 -0.42676844456E+02  0.53532225517E+02  0.47000000000E+01 0.  1.
<mgrwt>
<rscale>  0 0.93340433E+02</rscale>
<asrwt>0</asrwt>
<pdfrwt beam="1">  1        1 0.41468421E-01 0.94505172E+02</pdfrwt>
<pdfrwt beam="2">  1       -1 0.10198744E-01 0.94505172E+02</pdfrwt>
<totfact> 0.55368382E+03</totfact>
</mgrwt>
</event>
<event>
 8    1  0.6836165E-004  0.9840649E+02  0.7546771E-02  0.1285507E+00
          1   -1    0    0  501    0  0.00000000000E+00  0.00000000000E+00  0.27704775602E+02  0.27704775602E+02  0.00000000000E+00 0. -1.
         -1   -1    0    0    0  501 -0.00000000000E+00 -0.00000000000E+00 -0.38288507905E+03  0.38288507905E+03  0.00000000000E+00 0.  1.
         23    2    1    2    0    0  0.38381131672E+02  0.12697130032E+01 -0.10984999430E+03  0.14748172562E+03  0.90604164946E+02 0.  0.
         23    2    1    2    0    0 -0.38381131672E+02 -0.12697130032E+01 -0.24533030915E+03  0.26310812903E+03  0.86972429738E+02 0.  0.
          5    1    4    4  502    0  0.12187387184E+02 -0.22387943320E+02 -0.24983263677E+02  0.36000081617E+02  0.47000000000E+01 0. -1.
         -5    1    3    3    0  503 -0.18152955261E+02  0.22918539729E+02 -0.11233684377E+02  0.31671357923E+02  0.47000000000E+01 0.  1.
          5    1    3    3  503    0  0.56534086934E+02 -0.21648826726E+02 -0.98616309920E+02  0.11581036770E+03  0.47000000000E+01 0. -1.
         -5    1    4    4    0  502 -0.50568518857E+02  0.21118230317E+02 -0.22034704547E+03  0.22710804741E+03  0.47000000000E+01 0.  1.
<mgrwt>
<rscale>  0 0.97562390E+02</rscale>
<asrwt>0</asrwt>
<pdfrwt beam="1">  1        1 0.42622733E-02 0.98406494E+02</pdfrwt>
<pdfrwt beam="2">  1       -1 0.58905395E-01 0.98406494E+02</pdfrwt>
<totfact> 0.58096600E+03</totfact>
</mgrwt>
</event>
<event>
 7    1  0.6836165E-004  0.1294774E+03  0.7546771E-02  0.1242388E+00
         -1   -1    0    0    0  501 -0.00000000000E+00  0.00000000000E+00  0.61255569255E+02  0.61255569255E+02  0.00000000000E+00 0.  1.
          1   -1    0    0  501    0  0.00000000000E+00 -0.00000000000E+00 -0.25373787423E+03  0.25373787423E+03  0.00000000000E+00 0. -1.
         23    2    1    2    0    0  0.71812498081E+02  0.48487677751E+02 -0.42212697768E+02  0.13618484467E+03  0.96209720348E+02 0.  0.
          5    1    3    3  502    0  0.60010803675E+02 -0.12663635982E+00 -0.57925215189E+02  0.83538812232E+02  0.47000000000E+01 0. -1.
         -5    1    1    2    0  503 -0.45152126394E+02 -0.43320923346E+02 -0.70342491593E+02  0.94263317579E+02  0.47000000000E+01 0.  1.
          5    1    1    2  503    0 -0.26660371686E+02 -0.51667544051E+01 -0.79927115613E+02  0.84545281239E+02  0.47000000000E+01 0. -1.
         -5    1    3    3    0  502  0.11801694406E+02  0.48614314111E+02  0.15712517421E+02  0.52646032434E+02  0.47000000000E+01 0.  1.
<mgrwt>
<rscale>  0 0.12043084E+03</rscale>
<asrwt>0</asrwt>
<pdfrwt beam="1">  1        1 0.39036596E-01 0.12947741E+03</pdfrwt>
<pdfrwt beam="2">  1       -1 0.94239338E-02 0.12947741E+03</pdfrwt>
<totfact> 0.68701114E+03</totfact>
</mgrwt>
</event>
<event>
 8    1  0.6836165E-004  0.1183168E+03  0.7546771E-02  0.1247160E+00
          1   -1    0    0  501    0  0.00000000000E+00  0.00000000000E+00  0.48158359701E+03  0.48158359701E+03  0.00000000000E+00 0. -1.
         -1   -1    0    0    0  501 -0.00000000000E+00 -0.00000000000E+00 -0.33337052157E+02  0.33337052157E+02  0.00000000000E+00 0.  1.
         23    2    1    2    0    0 -0.32817991111E+02 -0.64391831137E+02  0.12692475065E+03  0.17351872286E+03  0.93677779636E+02 0.  0.
         23    2    1    2    0    0  0.32817991111E+02  0.64391831137E+02  0.32132179419E+03  0.34140192630E+03  0.89912465208E+02 0.  0.
          5    1    3    3  502    0  0.41023294552E+01 -0.20149882877E+02  0.11178056178E+03  0.11375337744E+03  0.47000000000E+01 0. -1.
         -5    1    4    4    0  503  0.52104434154E+02  0.75276883812E+02  0.23753433988E+03  0.25460976792E+03  0.47000000000E+01 0. -1.
          5    1    4    4  503    0 -0.19286443043E+02 -0.10885052675E+02  0.83787454310E+02  0.86792158383E+02  0.47000000000E+01 0.  1.
         -5    1    3    3    0  502 -0.36920320566E+02 -0.44241948260E+02  0.15144188870E+02  0.59765345419E+02  0.47000000000E+01 0.  1.
<mgrwt>
<rscale>  0 0.11757015E+03</rscale>
<asrwt>0</asrwt>
<pdfrwt beam="1">  1        1 0.74089779E-01 0.11831676E+03</pdfrwt>
<pdfrwt beam="2">  1       -1 0.51287776E-02 0.11831676E+03</pdfrwt>
<totfact> 0.76209836E+03</totfact>
</mgrwt>
</event>
<event>
 8    1  0.6836165E-004  0.1020181E+03  0.7546771E-02  0.1279129E+00
          1   -1    0    0  501    0  0.00000000000E+00  0.00000000000E+00  0.29935966866E+03  0.29935966866E+03  0.00000000000E+00 0. -1.
         -1   -1    0    0    0  501 -0.00000000000E+00 -0.00000000000E+00 -0.33153459906E+02  0.33153459906E+02  0.00000000000E+00 0.  1.
         23    2    1    2    0    0 -0.18638785165E+02  0.26995954924E+02  0.11326093993E+03  0.14866552262E+03  0.90538451536E+02 0.  0.
         23    2    1    2    0    0  0.18638785165E+02 -0.26995954924E+02  0.15294526882E+03  0.18384760594E+03  0.96599694942E+02 0.  0.
          5    1    4    4  502    0 -0.38507485630E+02 -0.19706073084E+02  0.55147176566E+02  0.70245689186E+02  0.47000000000E+01 0. -1.
         -5    1    3    3    0  503  0.34774814855E+02  0.13431594941E+02  0.65856832511E+02  0.75821552868E+02  0.47000000000E+01 0.  1.
          5    1    3    3  503    0 -0.53413600019E+02  0.13564359983E+02  0.47404107422E+02  0.72843969752E+02  0.47000000000E+01 0. -1.
         -5    1    4    4    0  502  0.57146270795E+02 -0.72898818392E+01  0.97798092253E+02  0.11360191676E+03  0.47000000000E+01 0.  1.
<mgrwt>
<rscale>  0 0.10055709E+03</rscale>
<asrwt>0</asrwt>
<pdfrwt beam="1">  1        1 0.46055332E-01 0.10201807E+03</pdfrwt>
<pdfrwt beam="2">  1       -1 0.51005325E-02 0.10201807E+03</pdfrwt>
<totfact> 0.13752709E+04</totfact>
</mgrwt>
</event>
<event>
 8    1  0.6836165E-004  0.1056325E+03  0.7546771E-02  0.1269965E+00
         -1   -1    0    0    0  501 -0.00000000000E+00  0.00000000000E+00  0.27821244296E+02  0.27821244296E+02  0.00000000000E+00 0.  1.
          1   -1    0    0  501    0  0.00000000000E+00 -0.00000000000E+00 -0.56216803188E+03  0.56216803188E+03  0.00000000000E+00 0. -1.
         23    2    1    2    0    0  0.47907712811E+02  0.11582194350E+02 -0.43106814572E+03  0.44382200003E+03  0.93428717671E+02 0.  0.
         23    2    1    2    0    0 -0.47907712811E+02 -0.11582194350E+02 -0.10327864187E+03  0.14616727615E+03  0.90934584057E+02 0.  0.
          5    1    4    4  502    0 -0.38560874019E+01  0.36797599147E+02 -0.44739805660E+02  0.58246655900E+02  0.47000000000E+01 0. -1.
         -5    1    3    3    0  503  0.44779920237E+02  0.49199302020E+02 -0.24565644611E+03  0.25454860458E+03  0.47000000000E+01 0.  1.
          5    1    3    3  503    0  0.31277925749E+01 -0.37617107670E+02 -0.18541169961E+03  0.18927339545E+03  0.47000000000E+01 0. -1.
         -5    1    4    4    0  502 -0.44051625410E+02 -0.48379793498E+02 -0.58538836208E+02  0.87920620247E+02  0.47000000000E+01 0.  1.
<mgrwt>
<rscale>  0 0.10507828E+03</rscale>
<asrwt>0</asrwt>
<pdfrwt beam="1">  1        1 0.86487393E-01 0.10563248E+03</pdfrwt>
<pdfrwt beam="2">  1       -1 0.42801912E-02 0.10563248E+03</pdfrwt>
<totfact> 0.80587177E+03</totfact>
</mgrwt>
</event>
<event>
 8    1  0.6836165E-004  0.9228847E+02  0.7546771E-02  0.1297571E+00
          2   -1    0    0  501    0  0.00000000000E+00  0.00000000000E+00  0.49930433318E+03  0.49930433318E+03  0.00000000000E+00 0. -1.
         -2   -1    0    0    0  501 -0.00000000000E+00 -0.00000000000E+00 -0.20857576991E+02  0.20857576991E+02  0.00000000000E+00 0.  1.
         23    2    1    2    0    0  0.10153797751E+02  0.54859050058E+01  0.35130606522E+03  0.36322598117E+03  0.91564005907E+02 0.  0.
         23    2    1    2    0    0 -0.10153797751E+02 -0.54859050058E+01  0.12714069097E+03  0.15693592899E+03  0.91273959851E+02 0.  0.
          5    1    4    4  502    0  0.16987359561E+02  0.13300088996E+02  0.12104434679E+03  0.12304180851E+03  0.47000000000E+01 0. -1.
         -5    1    4    4    0  502 -0.27141157313E+02 -0.18785994002E+02  0.60963441780E+01  0.33894120482E+02  0.47000000000E+01 0.  1.
          5    1    3    3  503    0  0.84049897816E+01  0.44024944140E+02  0.11103315081E+03  0.11983025552E+03  0.47000000000E+01 0. -1.
         -5    1    3    3    0  503  0.17488079696E+01 -0.38539039135E+02  0.24027291441E+03  0.24339572566E+03  0.47000000000E+01 0.  1.
<mgrwt>
<rscale>  0 0.92216447E+02</rscale>
<asrwt>0</asrwt>
<pdfrwt beam="1">  1        2 0.76816042E-01 0.92288471E+02</pdfrwt>
<pdfrwt beam="2">  1       -2 0.32088584E-02 0.92288471E+02</pdfrwt>
<totfact> 0.21612055E+04</totfact>
</mgrwt>
</event>
<event>
 7    1  0.6836165E-004  0.2573049E+03  0.7546771E-02  0.1145909E+00
         -1   -1    0    0    0  501 -0.00000000000E+00  0.00000000000E+00  0.36720611777E+02  0.36720611777E+02  0.00000000000E+00 0.  1.
          1   -1    0    0  501    0  0.00000000000E+00 -0.00000000000E+00 -0.88782277115E+03  0.88782277115E+03  0.00000000000E+00 0. -1.
         23    2    1    2    0    0 -0.44809784047E+02 -0.25603768629E+01 -0.27399716921E+03  0.29267634119E+03  0.92577101299E+02 0.  0.
          5    1    3    3  502    0 -0.70055048687E+02  0.65877404397E+00 -0.23931096409E+03  0.24939922086E+03  0.47000000000E+01 0. -1.
         -5    1    1    2    0  503  0.15606578031E+01  0.10914167368E+03 -0.12821153170E+03  0.16844769945E+03  0.47000000000E+01 0.  1.
          5    1    1    2  503    0  0.43249126244E+02 -0.10658129682E+03 -0.44889345846E+03  0.46341934228E+03  0.47000000000E+01 0. -1.
         -5    1    3    3    0  502  0.25245264640E+02 -0.32191509069E+01 -0.34686205116E+02  0.43277120337E+02  0.47000000000E+01 0.  1.
<mgrwt>
<rscale>  0 0.20460786E+03</rscale>
<asrwt>0</asrwt>
<pdfrwt beam="1">  1        1 0.13658813E+00 0.25730486E+03</pdfrwt>
<pdfrwt beam="2">  1       -1 0.56493246E-02 0.25730486E+03</pdfrwt>
<totfact> 0.28518668E+03</totfact>
</mgrwt>
</event>
<event>
 8    1  0.6836165E-004  0.9511082E+02  0.7546771E-02  0.1291353E+00
         -1   -1    0    0    0  501 -0.00000000000E+00  0.00000000000E+00  0.48017315323E+03  0.48017315323E+03  0.00000000000E+00 0.  1.
          1   -1    0    0  501    0  0.00000000000E+00 -0.00000000000E+00 -0.18708846336E+02  0.18708846336E+02  0.00000000000E+00 0. -1.
         23    2    1    2    0    0  0.13501163212E+02  0.20497932155E+02  0.22190584423E+03  0.24113343126E+03  0.91108075056E+02 0.  0.
         23    2    1    2    0    0 -0.13501163212E+02 -0.20497932155E+02  0.23955846267E+03  0.25774856830E+03  0.91889176706E+02 0.  0.
          5    1    3    3  502    0  0.51166510782E+02  0.22864914236E+02  0.13737931136E+03  0.14844521319E+03  0.47000000000E+01 0. -1.
         -5    1    4    4    0  503 -0.49849276555E+02 -0.22182822981E+02  0.17641526306E+03  0.18471995845E+03  0.47000000000E+01 0.  1.
          5    1    4    4  503    0  0.36348113342E+02  0.16848908266E+01  0.63143199607E+02  0.73028609854E+02  0.47000000000E+01 0. -1.
         -5    1    3    3    0  502 -0.37665347569E+02 -0.23669820817E+01  0.84526532868E+02  0.92688218077E+02  0.47000000000E+01 0.  1.
<mgrwt>
<rscale>  0 0.94921646E+02</rscale>
<asrwt>0</asrwt>
<pdfrwt beam="1">  1        1 0.28782844E-02 0.95110817E+02</pdfrwt>
<pdfrwt beam="2">  1       -1 0.73872784E-01 0.95110817E+02</pdfrwt>
<totfact> 0.64031628E+03</totfact>
</mgrwt>
</event>
<event>
 8    1  0.6836165E-004  0.9698049E+02  0.7546771E-02  0.1288298E+00
          1   -1    0    0  501    0  0.00000000000E+00  0.00000000000E+00  0.76457559943E+03  0.76457559943E+03  0.00000000000E+00 0. -1.
         -1   -1    0    0    0  501 -0.00000000000E+00 -0.00000000000E+00 -0.15207017333E+02  0.15207017333E+02  0.00000000000E+00 0.  1.
         23    2    1    2    0    0 -0.29578330570E+02 -0.90629049101E+01  0.19865909775E+03  0.22106707667E+03  0.91914097859E+02 0.  0.
         23    2    1    2    0    0  0.29578330570E+02  0.90629049101E+01  0.55070948435E+03  0.55871554009E+03  0.89023057140E+02 0.  0.
          5    1    4    4  502    0  0.50130260180E+02  0.26431410214E+02  0.47174363028E+03  0.47515871574E+03  0.47000000000E+01 0. -1.
         -5    1    3    3    0  503 -0.23559145614E+01 -0.46262401112E+02  0.13129299432E+03  0.13930434469E+03  0.47000000000E+01 0.  1.
          5    1    3    3  503    0 -0.27222416009E+02  0.37199496202E+02  0.67366103422E+02  0.81762731983E+02  0.47000000000E+01 0. -1.
         -5    1    4    4    0  502 -0.20551929610E+02 -0.17368505304E+02  0.78965854066E+02  0.83556824351E+02  0.47000000000E+01 0.  1.
<mgrwt>
<rscale>  0 0.96289260E+02</rscale>
<asrwt>0</asrwt>
<pdfrwt beam="1">  1        1 0.11762699E+00 0.96980489E+02</pdfrwt>
<pdfrwt beam="2">  1       -1 0.23395417E-02 0.96980489E+02</pdfrwt>
<totfact> 0.12535706E+04</totfact>
</mgrwt>
</event>
<event>
 8    1  0.6836165E-004  0.3143744E+03  0.7546771E-02  0.1078355E+00
         -1   -1    0    0    0  501 -0.00000000000E+00  0.00000000000E+00  0.26129405181E+03  0.26129405181E+03  0.00000000000E+00 0.  1.
          1   -1    0    0  501    0  0.00000000000E+00 -0.00000000000E+00 -0.38517790758E+03  0.38517790758E+03  0.00000000000E+00 0. -1.
         23    2    1    2    0    0  0.29971999360E+03 -0.30582970319E+02 -0.10795929993E+03  0.33169451761E+03  0.87170235363E+02 0.  0.
         23    2    1    2    0    0 -0.29971999360E+03  0.30582970319E+02 -0.15924555842E+02  0.31477744177E+03  0.89798962860E+02 0.  0.
          5    1    4    4  502    0 -0.20565044537E+02 -0.10495814054E+02  0.19206978018E+02  0.30398703493E+02  0.47000000000E+01 0. -1.
         -5    1    4    4    0  502 -0.27915494907E+03  0.41078784373E+02 -0.35131533860E+02  0.28437873828E+03  0.47000000000E+01 0.  1.
          5    1    3    3  503    0  0.24361193764E+03  0.10541517273E+02 -0.82229155070E+02  0.25737448143E+03  0.47000000000E+01 0. -1.
         -5    1    3    3    0  503  0.56108055962E+02 -0.41124487592E+02 -0.25730144860E+02  0.74320036182E+02  0.47000000000E+01 0.  1.
<mgrwt>
<rscale>  0 0.31418902E+03</rscale>
<asrwt>0</asrwt>
<pdfrwt beam="1">  1        1 0.59258139E-01 0.31437437E+03</pdfrwt>
<pdfrwt beam="2">  1       -1 0.40199085E-01 0.31437437E+03</pdfrwt>
<totfact> 0.39084798E+02</totfact>
</mgrwt>
</event>
<event>
 8    1  0.6836165E-004  0.1038753E+03  0.7546771E-02  0.1273558E+00
         -2   -1    0    0    0  501 -0.00000000000E+00  0.00000000000E+00  0.19749907921E+02  0.19749907921E+02  0.00000000000E+00 0.  1.
          2   -1    0    0  501    0  0.00000000000E+00 -0.00000000000E+00 -0.54586214037E+03  0.54586214037E+03  0.00000000000E+00 0. -1.
         23    2    1    2    0    0 -0.47746521571E+02 -0.20294840851E+02 -0.30795838155E+03  0.32500528662E+03  0.89991447789E+02 0.  0.
         23    2    1    2    0    0  0.47746521571E+02  0.20294840851E+02 -0.21815385089E+03  0.24060676167E+03  0.87229010160E+02 0.  0.
          5    1    4    4  502    0  0.19683376545E+02 -0.34109576504E+02 -0.96679413145E+02  0.10449831313E+03  0.47000000000E+01 0. -1.
         -5    1    3    3    0  503 -0.13145221484E+02  0.35276031460E+02 -0.12506393095E+03  0.13069151490E+03  0.47000000000E+01 0.  1.
          5    1    3    3  503    0 -0.34601300087E+02 -0.55570872311E+02 -0.18289445060E+03  0.19431377172E+03  0.47000000000E+01 0. -1.
         -5    1    4    4    0  502  0.28063145026E+02  0.54404417355E+02 -0.12147443775E+03  0.13610844854E+03  0.47000000000E+01 0.  1.
<mgrwt>
<rscale>  0 0.10327411E+03</rscale>
<asrwt>0</asrwt>
<pdfrwt beam="1">  1        2 0.83978792E-01 0.10387527E+03</pdfrwt>
<pdfrwt beam="2">  1       -2 0.30384473E-02 0.10387527E+03</pdfrwt>
<totfact> 0.21479271E+04</totfact>
</mgrwt>
</event>
<event>
 8    1  0.6836165E-004  0.9480259E+02  0.7546771E-02  0.1292140E+00
          2   -1    0    0  501    0  0.00000000000E+00  0.00000000000E+00  0.26286962643E+03  0.26286962643E+03  0.00000000000E+00 0. -1.
         -2   -1    0    0    0  501 -0.00000000000E+00 -0.00000000000E+00 -0.36663039934E+02  0.36663039934E+02  0.00000000000E+00 0.  1.
         23    2    1    2    0    0 -0.11262599588E+02 -0.21967701262E+02  0.15399890664E+03  0.18036270304E+03  0.90584851679E+02 0.  0.
         23    2    1    2    0    0  0.11262599588E+02  0.21967701262E+02  0.72207679859E+02  0.11916996332E+03  0.91531989380E+02 0.  0.
          5    1    4    4  502    0 -0.35331423298E+02  0.28608425500E+02  0.23954262255E+02  0.51600854276E+02  0.47000000000E+01 0. -1.
         -5    1    3    3    0  503 -0.47677715996E+02 -0.29605370592E+02  0.89077066170E+02  0.10538717326E+03  0.47000000000E+01 0.  1.
          5    1    3    3  503    0  0.36415116408E+02  0.76376693298E+01  0.64921840465E+02  0.74975529776E+02  0.47000000000E+01 0. -1.
         -5    1    4    4    0  502  0.46594022886E+02 -0.66407242381E+01  0.48253417604E+02  0.67569109048E+02  0.47000000000E+01 0.  1.
<mgrwt>
<rscale>  0 0.94573225E+02</rscale>
<asrwt>0</asrwt>
<pdfrwt beam="1">  1        2 0.40441480E-01 0.94802590E+02</pdfrwt>
<pdfrwt beam="2">  1       -2 0.56404678E-02 0.94802590E+02</pdfrwt>
<totfact> 0.18536245E+04</totfact>
</mgrwt>
</event>
<event>
 8    1  0.6836165E-004  0.1100040E+03  0.7546771E-02  0.1268067E+00
          1   -1    0    0  501    0  0.00000000000E+00  0.00000000000E+00  0.24071697059E+03  0.24071697059E+03  0.00000000000E+00 0. -1.
         -1   -1    0    0    0  501 -0.00000000000E+00 -0.00000000000E+00 -0.12144419906E+03  0.12144419906E+03  0.00000000000E+00 0.  1.
         23    2    1    2    0    0  0.14867030355E+02  0.24914210055E+02 -0.86717040448E+02  0.12863884720E+03  0.90478513758E+02 0.  0.
         23    2    1    2    0    0 -0.14867030355E+02 -0.24914210055E+02  0.20598981197E+03  0.23352232244E+03  0.10610902879E+03 0.  0.
          5    1    4    4  502    0 -0.17155958096E+02 -0.64515922718E+02  0.15436716462E+03  0.16824964396E+03  0.47000000000E+01 0. -1.
         -5    1    3    3    0  503  0.38073890603E+02  0.44458705171E+01 -0.89240610086E+02  0.97238692910E+02  0.47000000000E+01 0.  1.
          5    1    3    3  503    0 -0.23206860248E+02  0.20468339538E+02  0.25235696383E+01  0.31400154294E+02  0.47000000000E+01 0. -1.
         -5    1    4    4    0  502  0.22889277411E+01  0.39601712664E+02  0.51622647355E+02  0.65272678480E+02  0.47000000000E+01 0.  1.
<mgrwt>
<rscale>  0 0.10604882E+03</rscale>
<asrwt>0</asrwt>
<pdfrwt beam="1">  1        1 0.37033380E-01 0.11000397E+03</pdfrwt>
<pdfrwt beam="2">  1       -1 0.18683723E-01 0.11000397E+03</pdfrwt>
<totfact> 0.25148227E+03</totfact>
</mgrwt>
</event>
<event>
 8    1  0.6836165E-004  0.9288326E+02  0.7546771E-02  0.1301235E+00
          2   -1    0    0  501    0  0.00000000000E+00  0.00000000000E+00  0.57842678388E+02  0.57842678388E+02  0.00000000000E+00 0. -1.
         -2   -1    0    0    0  501 -0.00000000000E+00 -0.00000000000E+00 -0.13582884985E+03  0.13582884985E+03  0.00000000000E+00 0.  1.
         23    2    1    2    0    0 -0.28885260485E+01 -0.17820748407E+02 -0.43119137816E+02  0.10240390635E+03  0.91111894573E+02 0.  0.
         23    2    1    2    0    0  0.28885260485E+01  0.17820748407E+02 -0.34867033641E+02  0.91267621886E+02  0.82390206416E+02 0.  0.
          5    1    3    3  502    0  0.57543513249E+01  0.20307333454E+02  0.19046858565E+02  0.28816196356E+02  0.47000000000E+01 0. -1.
         -5    1    3    3    0  502 -0.86428773734E+01 -0.38128081861E+02 -0.62165996381E+02  0.73587709991E+02  0.47000000000E+01 0.  1.
          5    1    4    4  503    0  0.33464306892E+02  0.35172218829E+02 -0.22381939096E+02  0.53665501124E+02  0.47000000000E+01 0. -1.
         -5    1    4    4    0  503 -0.30575780844E+02 -0.17351470423E+02 -0.12485094545E+02  0.37602120762E+02  0.47000000000E+01 0.  1.
<mgrwt>
<rscale>  0 0.90670883E+02</rscale>
<asrwt>0</asrwt>
<pdfrwt beam="1">  1        2 0.88988737E-02 0.92883260E+02</pdfrwt>
<pdfrwt beam="2">  1       -2 0.20896746E-01 0.92883260E+02</pdfrwt>
<totfact> 0.12989870E+04</totfact>
</mgrwt>
</event>
<event>
 8    1  0.6836165E-004  0.9442020E+02  0.7546771E-02  0.1295691E+00
          2   -1    0    0  501    0  0.00000000000E+00  0.00000000000E+00  0.20312994431E+03  0.20312994431E+03  0.00000000000E+00 0. -1.
         -2   -1    0    0    0  501 -0.00000000000E+00 -0.00000000000E+00 -0.11426312030E+03  0.11426312030E+03  0.00000000000E+00 0.  1.
         23    2    1    2    0    0  0.88863700631E+00 -0.85847226239E+01 -0.81805734471E+02  0.12492939195E+03  0.94024930956E+02 0.  0.
         23    2    1    2    0    0 -0.88863700631E+00  0.85847226239E+01  0.17067255848E+03  0.19246367266E+03  0.88536184341E+02 0.  0.
          5    1    4    4  502    0  0.22882231146E+02  0.85736622359E+01  0.16591418936E+03  0.16776981975E+03  0.47000000000E+01 0. -1.
         -5    1    4    4    0  502 -0.23770868152E+02  0.11060388034E-01  0.47583691175E+01  0.24693852913E+02  0.47000000000E+01 0.  1.
          5    1    3    3  503    0  0.29899775742E+02 -0.19800003199E+02  0.11742465418E+01  0.36187091221E+02  0.47000000000E+01 0. -1.
         -5    1    3    3    0  503 -0.29011138735E+02  0.11215280575E+02 -0.82979981013E+02  0.88742300725E+02  0.47000000000E+01 0.  1.
<mgrwt>
<rscale>  0 0.93023425E+02</rscale>
<asrwt>0</asrwt>
<pdfrwt beam="1">  1        2 0.31250761E-01 0.94420203E+02</pdfrwt>
<pdfrwt beam="2">  1       -2 0.17578942E-01 0.94420203E+02</pdfrwt>
<totfact> 0.41235164E+03</totfact>
</mgrwt>
</event>
<event>
 7    1  0.6836165E-004  0.3209068E+03  0.7546771E-02  0.1075233E+00
         -2   -1    0    0    0  501 -0.00000000000E+00  0.00000000000E+00  0.19427842657E+02  0.19427842657E+02  0.00000000000E+00 0.  1.
          2   -1    0    0  501    0  0.00000000000E+00 -0.00000000000E+00 -0.13251749916E+04  0.13251749916E+04  0.00000000000E+00 0. -1.
         23    2    1    2    0    0  0.49673061907E+02 -0.11610060791E+02 -0.42240081814E+03  0.43536503667E+03  0.92293322602E+02 0.  0.
          5    1    3    3  502    0  0.67175032784E+02 -0.28138447237E+02 -0.37455175897E+03  0.38159581679E+03  0.47000000000E+01 0. -1.
         -5    1    1    2    0  503  0.56397546131E+02 -0.63530056445E+02 -0.37225741471E+03  0.38185654909E+03  0.47000000000E+01 0.  1.
          5    1    1    2  503    0 -0.10607060804E+03  0.75140117237E+02 -0.51108891609E+03  0.52738124849E+03  0.47000000000E+01 0. -1.
         -5    1    3    3    0  502 -0.17501970878E+02  0.16528386445E+02 -0.47849059173E+02  0.53769219883E+02  0.47000000000E+01 0.  1.
<mgrwt>
<rscale>  0 0.32090679E+03</rscale>
<asrwt>0</asrwt>
<pdfrwt beam="1">  1        2 0.20387312E+00 0.32090679E+03</pdfrwt>
<pdfrwt beam="2">  1       -2 0.29888982E-02 0.32090679E+03</pdfrwt>
<totfact> 0.72564089E+03</totfact>
</mgrwt>
</event>
<event>
 8    1  0.6836165E-004  0.9241546E+02  0.7546771E-02  0.1297320E+00
          3   -1    0    0  501    0  0.00000000000E+00  0.00000000000E+00  0.28563922713E+03  0.28563922713E+03  0.00000000000E+00 0. -1.
         -3   -1    0    0    0  501 -0.00000000000E+00 -0.00000000000E+00 -0.31226260123E+02  0.31226260123E+02  0.00000000000E+00 0.  1.
         23    2    1    2    0    0  0.13035330843E+02  0.50956253664E+01  0.93368616919E+02  0.13137090640E+03  0.91349500129E+02 0.  0.
         23    2    1    2    0    0 -0.13035330843E+02 -0.50956253664E+01  0.16104435009E+03  0.18549458085E+03  0.90978412735E+02 0.  0.
          5    1    3    3  502    0 -0.16738365163E+02  0.38463084672E+02  0.67164011507E+02  0.79326390265E+02  0.47000000000E+01 0. -1.
         -5    1    3    3    0  502  0.29773696007E+02 -0.33367459306E+02  0.26204605412E+02  0.52044516130E+02  0.47000000000E+01 0.  1.
          5    1    4    4  503    0 -0.51181342924E+02  0.45259235150E+01  0.78562378593E+02  0.93990165323E+02  0.47000000000E+01 0. -1.
         -5    1    4    4    0  503  0.38146012081E+02 -0.96215488814E+01  0.82481971493E+02  0.91504415532E+02  0.47000000000E+01 0.  1.
<mgrwt>
<rscale>  0 0.92323621E+02</rscale>
<asrwt>0</asrwt>
<pdfrwt beam="1">  1        3 0.43944495E-01 0.92415456E+02</pdfrwt>
<pdfrwt beam="2">  1       -3 0.48040402E-02 0.92415456E+02</pdfrwt>
<totfact> 0.26650361E+03</totfact>
</mgrwt>
</event>
<event>
 8    1  0.6836165E-004  0.1265392E+03  0.7546771E-02  0.1235444E+00
         -1   -1    0    0    0  501 -0.00000000000E+00  0.00000000000E+00  0.16039603422E+03  0.16039603422E+03  0.00000000000E+00 0.  1.
          1   -1    0    0  501    0  0.00000000000E+00 -0.00000000000E+00 -0.10149203543E+03  0.10149203543E+03  0.00000000000E+00 0. -1.
         23    2    1    2    0    0  0.31056969197E+02 -0.72310636191E+02  0.63254751881E+02  0.13527405515E+03  0.90025234906E+02 0.  0.
         23    2    1    2    0    0 -0.31056969197E+02  0.72310636191E+02 -0.43507530988E+01  0.12661401450E+03  0.99089939817E+02 0.  0.
          5    1    3    3  502    0 -0.18743548463E+02 -0.16252598008E+02  0.53953208459E+02  0.59569339882E+02  0.47000000000E+01 0. -1.
         -5    1    4    4    0  503 -0.41584500004E+02  0.25193168095E+01  0.26332676827E+02  0.49508761513E+02  0.47000000000E+01 0.  1.
          5    1    4    4  503    0  0.10527530807E+02  0.69791319382E+02 -0.30683429925E+02  0.77105252985E+02  0.47000000000E+01 0. -1.
         -5    1    3    3    0  502  0.49800517660E+02 -0.56058038183E+02  0.93015434219E+01  0.75704715270E+02  0.47000000000E+01 0.  1.
<mgrwt>
<rscale>  0 0.12476075E+03</rscale>
<asrwt>0</asrwt>
<pdfrwt beam="1">  1        1 0.15614159E-01 0.12653924E+03</pdfrwt>
<pdfrwt beam="2">  1       -1 0.24676313E-01 0.12653924E+03</pdfrwt>
<totfact> 0.47820636E+03</totfact>
</mgrwt>
</event>
<event>
 8    1  0.6836165E-004  0.1200840E+03  0.7546771E-02  0.1243279E+00
         -1   -1    0    0    0  501 -0.00000000000E+00  0.00000000000E+00  0.19685505800E+02  0.19685505800E+02  0.00000000000E+00 0.  1.
          1   -1    0    0  501    0  0.00000000000E+00 -0.00000000000E+00 -0.72791186044E+03  0.72791186044E+03  0.00000000000E+00 0. -1.
         23    2    1    2    0    0  0.25414829795E+02  0.74069930849E+02 -0.35757687079E+03  0.37695573300E+03  0.90011876354E+02 0.  0.
         23    2    1    2    0    0 -0.25414829795E+02 -0.74069930849E+02 -0.35064948385E+03  0.37064163324E+03  0.91037857728E+02 0.  0.
          5    1    3    3  502    0 -0.19949256616E+02  0.22912715921E+02 -0.23081229172E+03  0.23285053017E+03  0.47000000000E+01 0. -1.
         -5    1    4    4    0  503  0.21694614153E+02 -0.36870826648E+01 -0.22946526799E+02  0.32138512006E+02  0.47000000000E+01 0.  1.
          5    1    4    4  503    0 -0.47109443948E+02 -0.70382848184E+02 -0.32770295705E+03  0.33850312124E+03  0.47000000000E+01 0. -1.
         -5    1    3    3    0  502  0.45364086411E+02  0.51157214928E+02 -0.12676457907E+03  0.14410520283E+03  0.47000000000E+01 0.  1.
<mgrwt>
<rscale>  0 0.11988951E+03</rscale>
<asrwt>0</asrwt>
<pdfrwt beam="1">  1        1 0.11198643E+00 0.12008397E+03</pdfrwt>
<pdfrwt beam="2">  1       -1 0.30285397E-02 0.12008397E+03</pdfrwt>
<totfact> 0.94195769E+03</totfact>
</mgrwt>
</event>
<event>
 8    1  0.6836165E-004  0.1017310E+03  0.7546771E-02  0.1276844E+00
         -2   -1    0    0    0  501 -0.00000000000E+00  0.00000000000E+00  0.27998531562E+03  0.27998531562E+03  0.00000000000E+00 0.  1.
          2   -1    0    0  501    0  0.00000000000E+00 -0.00000000000E+00 -0.37108356058E+02  0.37108356058E+02  0.00000000000E+00 0. -1.
         23    2    1    2    0    0  0.19051944069E+02  0.40296749547E+02  0.13458633623E+03  0.16870886230E+03  0.91446124701E+02 0.  0.
         23    2    1    2    0    0 -0.19051944069E+02 -0.40296749547E+02  0.10829062333E+03  0.14838480937E+03  0.91128414641E+02 0.  0.
          5    1    4    4  502    0  0.29254496333E+02  0.37461597256E+01  0.59847872688E+02  0.66885851521E+02  0.47000000000E+01 0. -1.
         -5    1    4    4    0  502 -0.48306440402E+02 -0.44042909272E+02  0.48442750644E+02  0.81498957854E+02  0.47000000000E+01 0.  1.
          5    1    3    3  503    0  0.37976667911E+02  0.59908271514E+02  0.76824637864E+02  0.10466777577E+03  0.47000000000E+01 0. -1.
         -5    1    3    3    0  503 -0.18924723842E+02 -0.19611521968E+02  0.57761698366E+02  0.64041086534E+02  0.47000000000E+01 0.  1.
<mgrwt>
<rscale>  0 0.10165956E+03</rscale>
<asrwt>0</asrwt>
<pdfrwt beam="1">  1        2 0.57089780E-02 0.10173101E+03</pdfrwt>
<pdfrwt beam="2">  1       -2 0.43074663E-01 0.10173101E+03</pdfrwt>
<totfact> 0.62730319E+03</totfact>
</mgrwt>
</event>
<event>
 8    1  0.6836165E-004  0.9522334E+02  0.7546771E-02  0.1299843E+00
         -2   -1    0    0    0  501 -0.00000000000E+00  0.00000000000E+00  0.19441050299E+03  0.19441050299E+03  0.00000000000E+00 0.  1.
          2   -1    0    0  501    0  0.00000000000E+00 -0.00000000000E+00 -0.15403993323E+03  0.15403993323E+03  0.00000000000E+00 0. -1.
         23    2    1    2    0    0 -0.65849015596E+01 -0.29040318551E+02  0.17064177670E+03  0.19541263948E+03  0.90447679271E+02 0.  0.
         23    2    1    2    0    0  0.65849015596E+01  0.29040318551E+02 -0.13027120694E+03  0.15303779674E+03  0.74587390664E+02 0.  0.
          5    1    3    3  502    0 -0.37990550864E+02  0.13902011481E+02  0.59486865066E+02  0.72092475291E+02  0.47000000000E+01 0. -1.
         -5    1    4    4    0  503  0.11601010003E+02 -0.23648970760E+02 -0.36482097466E+02  0.45242576038E+02  0.47000000000E+01 0.  1.
          5    1    4    4  503    0 -0.50161084437E+01  0.52689289311E+02 -0.93789109470E+02  0.10779522071E+03  0.47000000000E+01 0. -1.
         -5    1    3    3    0  502  0.31405649305E+02 -0.42942330032E+02  0.11115491163E+03  0.12332016419E+03  0.47000000000E+01 0.  1.
<mgrwt>
<rscale>  0 0.91254090E+02</rscale>
<asrwt>0</asrwt>
<pdfrwt beam="1">  1        2 0.23698451E-01 0.95223336E+02</pdfrwt>
<pdfrwt beam="2">  1       -2 0.29909308E-01 0.95223336E+02</pdfrwt>
<totfact> 0.22398033E+03</totfact>
</mgrwt>
</event>
<event>
 8    1  0.6836165E-004  0.1186339E+03  0.7546771E-02  0.1246896E+00
          2   -1    0    0  501    0  0.00000000000E+00  0.00000000000E+00  0.69681949734E+02  0.69681949734E+02  0.00000000000E+00 0. -1.
         -2   -1    0    0    0  501 -0.00000000000E+00 -0.00000000000E+00 -0.19912030666E+03  0.19912030666E+03  0.00000000000E+00 0.  1.
         23    2    1    2    0    0 -0.70582822898E+02  0.18087168269E+02 -0.46676472262E+02  0.12415253670E+03  0.89028527798E+02 0.  0.
         23    2    1    2    0    0  0.70582822898E+02 -0.18087168269E+02 -0.82761884660E+02  0.14464971969E+03  0.93621211861E+02 0.  0.
          5    1    3    3  502    0 -0.39780948013E+02  0.47310862294E+02 -0.52247390709E+02  0.81072321736E+02  0.47000000000E+01 0. -1.
         -5    1    3    3    0  502 -0.30801874885E+02 -0.29223694025E+02  0.55709184474E+01  0.43080214963E+02  0.47000000000E+01 0.  1.
          5    1    4    4  503    0  0.20067187574E+02  0.37769074874E+02 -0.33578478144E+02  0.54578376931E+02  0.47000000000E+01 0. -1.
         -5    1    4    4    0  503  0.50515635324E+02 -0.55856243143E+02 -0.49183406516E+02  0.90071342761E+02  0.47000000000E+01 0.  1.
<mgrwt>
<rscale>  0 0.11772613E+03</rscale>
<asrwt>0</asrwt>
<pdfrwt beam="1">  1        2 0.10720300E-01 0.11863394E+03</pdfrwt>
<pdfrwt beam="2">  1       -2 0.30633893E-01 0.11863394E+03</pdfrwt>
<totfact> 0.54355969E+03</totfact>
</mgrwt>
</event>
<event>
 8    1  0.6836165E-004  0.9352364E+02  0.7546771E-02  0.1295209E+00
         -2   -1    0    0    0  501 -0.00000000000E+00  0.00000000000E+00  0.60535455199E+02  0.60535455199E+02  0.00000000000E+00 0.  1.
          2   -1    0    0  501    0  0.00000000000E+00 -0.00000000000E+00 -0.24349505448E+03  0.24349505448E+03  0.00000000000E+00 0. -1.
         23    2    1    2    0    0  0.97972881201E+01 -0.12960571771E+02  0.66599001118E+01  0.92601501484E+02  0.90921507535E+02 0.  0.
         23    2    1    2    0    0 -0.97972881201E+01  0.12960571771E+02 -0.18961949939E+03  0.21142900819E+03  0.92101616061E+02 0.  0.
          5    1    3    3  502    0  0.49293587684E+02  0.22255846530E+01  0.67598321925E+01  0.50025956713E+02  0.47000000000E+01 0. -1.
         -5    1    4    4    0  503  0.31249082820E+02 -0.99217914940E+01 -0.13600344265E+03  0.13997847526E+03  0.47000000000E+01 0. -1.
          5    1    4    4  503    0 -0.41046370940E+02  0.22882363265E+02 -0.53616056740E+02  0.71450532932E+02  0.47000000000E+01 0.  1.
         -5    1    3    3    0  502 -0.39496299563E+02 -0.15186156424E+02 -0.99932080692E-01  0.42575544771E+02  0.47000000000E+01 0.  1.
<mgrwt>
<rscale>  0 0.93231791E+02</rscale>
<asrwt>0</asrwt>
<pdfrwt beam="1">  1        2 0.37460778E-01 0.93523638E+02</pdfrwt>
<pdfrwt beam="2">  1       -2 0.93131469E-02 0.93523638E+02</pdfrwt>
<totfact> 0.93617606E+03</totfact>
</mgrwt>
</event>
<event>
 8    1  0.6836165E-004  0.1200560E+03  0.7546771E-02  0.1252764E+00
         -3   -1    0    0    0  501 -0.00000000000E+00  0.00000000000E+00  0.17948510041E+03  0.17948510041E+03  0.00000000000E+00 0.  1.
          3   -1    0    0  501    0  0.00000000000E+00 -0.00000000000E+00 -0.66993148106E+02  0.66993148106E+02  0.00000000000E+00 0. -1.
         23    2    1    2    0    0 -0.25335550846E+02 -0.16592642118E+01  0.70253378596E+02  0.13910065333E+03  0.11734057805E+03 0.  0.
         23    2    1    2    0    0  0.25335550846E+02  0.16592642118E+01  0.42238573712E+02  0.10737759519E+03  0.95400249191E+02 0.  0.
          5    1    3    3  502    0  0.15142736391E+02  0.14829673182E+02 -0.25648872708E+02  0.33603219240E+02  0.47000000000E+01 0. -1.
         -5    1    4    4    0  503 -0.65965676858E+01  0.27995423238E+02 -0.17913791159E+02  0.34208951185E+02  0.47000000000E+01 0.  1.
          5    1    4    4  503    0  0.31932118532E+02 -0.26336159026E+02  0.60152364871E+02  0.73168644007E+02  0.47000000000E+01 0. -1.
         -5    1    3    3    0  502 -0.40478287237E+02 -0.16488937393E+02  0.95902251304E+02  0.10549743409E+03  0.47000000000E+01 0.  1.
<mgrwt>
<rscale>  0 0.11432481E+03</rscale>
<asrwt>0</asrwt>
<pdfrwt beam="1">  1        3 0.10306638E-01 0.12005605E+03</pdfrwt>
<pdfrwt beam="2">  1       -3 0.27613092E-01 0.12005605E+03</pdfrwt>
<totfact> 0.19700490E+03</totfact>
</mgrwt>
</event>
<event>
 8    1  0.6836165E-004  0.9249085E+02  0.7546771E-02  0.1298186E+00
         -1   -1    0    0    0  501 -0.00000000000E+00  0.00000000000E+00  0.31901873786E+02  0.31901873786E+02  0.00000000000E+00 0.  1.
          1   -1    0    0  501    0  0.00000000000E+00 -0.00000000000E+00 -0.31622994415E+03  0.31622994415E+03  0.00000000000E+00 0. -1.
         23    2    1    2    0    0  0.29690513135E+00 -0.15015330443E+02 -0.68729811527E+02  0.11353180232E+03  0.89107434283E+02 0.  0.
         23    2    1    2    0    0 -0.29690513135E+00  0.15015330443E+02 -0.21559825884E+03  0.23460001562E+03  0.91263408945E+02 0.  0.
          5    1    3    3  502    0  0.21382061761E+02 -0.33091119116E+02 -0.46083331419E+00  0.39680185192E+02  0.47000000000E+01 0. -1.
         -5    1    3    3    0  502 -0.21085156629E+02  0.18075788673E+02 -0.68268978213E+02  0.73851617129E+02  0.47000000000E+01 0.  1.
          5    1    4    4  503    0  0.26424186165E+02 -0.13271795906E+02 -0.17726450892E+03  0.17977534398E+03  0.47000000000E+01 0. -1.
         -5    1    4    4    0  503 -0.26721091296E+02  0.28287126349E+02 -0.38333749920E+02  0.54824671637E+02  0.47000000000E+01 0.  1.
<mgrwt>
<rscale>  0 0.91954536E+02</rscale>
<asrwt>0</asrwt>
<pdfrwt beam="1">  1        1 0.48650759E-01 0.92490854E+02</pdfrwt>
<pdfrwt beam="2">  1       -1 0.49079808E-02 0.92490854E+02</pdfrwt>
<totfact> 0.13482627E+04</totfact>
</mgrwt>
</event>
<event>
 8    1  0.6836165E-004  0.1163674E+03  0.7546771E-02  0.1249216E+00
         -1   -1    0    0    0  501 -0.00000000000E+00  0.00000000000E+00  0.29289293868E+02  0.29289293868E+02  0.00000000000E+00 0.  1.
          1   -1    0    0  501    0  0.00000000000E+00 -0.00000000000E+00 -0.46615547662E+03  0.46615547662E+03  0.00000000000E+00 0. -1.
         23    2    1    2    0    0 -0.53728638633E+02 -0.47749840399E+02 -0.24095231224E+03  0.26757724745E+03  0.91502747018E+02 0.  0.
         23    2    1    2    0    0  0.53728638633E+02  0.47749840399E+02 -0.19591387051E+03  0.22786752304E+03  0.91512564872E+02 0.  0.
          5    1    4    4  502    0  0.78126338455E+02  0.40180004464E+02 -0.16860840678E+03  0.19018160363E+03  0.47000000000E+01 0. -1.
         -5    1    4    4    0  502 -0.24397699822E+02  0.75698359353E+01 -0.27305463730E+02  0.37685919415E+02  0.47000000000E+01 0.  1.
          5    1    3    3  503    0 -0.43731376919E+02 -0.23817240329E+02 -0.23537983180E+03  0.24063551168E+03  0.47000000000E+01 0. -1.
         -5    1    3    3    0  503 -0.99972617141E+01 -0.23932600070E+02 -0.55724804385E+01  0.26941735767E+02  0.47000000000E+01 0.  1.
<mgrwt>
<rscale>  0 0.11636543E+03</rscale>
<asrwt>0</asrwt>
<pdfrwt beam="1">  1        1 0.71716228E-01 0.11636736E+03</pdfrwt>
<pdfrwt beam="2">  1       -1 0.45060452E-02 0.11636736E+03</pdfrwt>
<totfact> 0.96028962E+03</totfact>
</mgrwt>
</event>
<event>
 8    1  0.6836165E-004  0.9245072E+02  0.7546771E-02  0.1298601E+00
         -2   -1    0    0    0  501 -0.00000000000E+00  0.00000000000E+00  0.89841358340E+01  0.89841358340E+01  0.00000000000E+00 0.  1.
          2   -1    0    0  501    0  0.00000000000E+00 -0.00000000000E+00 -0.97003218418E+03  0.97003218418E+03  0.00000000000E+00 0. -1.
         23    2    1    2    0    0  0.94608608875E+01  0.68772323588E+01 -0.36742483416E+03  0.37823711257E+03  0.89025279319E+02 0.  0.
         23    2    1    2    0    0 -0.94608608875E+01 -0.68772323588E+01 -0.59362321419E+03  0.60077920745E+03  0.91707859298E+02 0.  0.
          5    1    4    4  502    0 -0.42680809290E+02 -0.29275623706E+02 -0.31762952117E+03  0.32185294211E+03  0.47000000000E+01 0. -1.
         -5    1    4    4    0  502  0.33219948403E+02  0.22398391347E+02 -0.27599369302E+03  0.27892626534E+03  0.47000000000E+01 0.  1.
          5    1    3    3  503    0 -0.38267395153E+02  0.11041058783E+02 -0.20236010762E+03  0.20629590803E+03  0.47000000000E+01 0. -1.
         -5    1    3    3    0  503  0.47728256040E+02 -0.41638264240E+01 -0.16506472653E+03  0.17194120455E+03  0.47000000000E+01 0.  1.
<mgrwt>
<rscale>  0 0.91778324E+02</rscale>
<asrwt>0</asrwt>
<pdfrwt beam="1">  1        2 0.14923570E+00 0.92450720E+02</pdfrwt>
<pdfrwt beam="2">  1       -2 0.13821750E-02 0.92450720E+02</pdfrwt>
<totfact> 0.33225195E+04</totfact>
</mgrwt>
</event>
<event>
 8    1  0.6836165E-004  0.9193182E+02  0.7546771E-02  0.1298579E+00
         -1   -1    0    0    0  501 -0.00000000000E+00  0.00000000000E+00  0.48964411792E+02  0.48964411792E+02  0.00000000000E+00 0.  1.
          1   -1    0    0  501    0  0.00000000000E+00 -0.00000000000E+00 -0.51150477245E+03  0.51150477245E+03  0.00000000000E+00 0. -1.
         23    2    1    2    0    0  0.75557225356E+01  0.32041486619E+01 -0.25620354684E+01  0.91394009387E+02  0.90988710368E+02 0.  0.
         23    2    1    2    0    0 -0.75557225356E+01 -0.32041486619E+01 -0.45997832518E+03  0.46907517485E+03  0.91564755826E+02 0.  0.
          5    1    3    3  502    0 -0.29554752157E+02 -0.15769885457E+02 -0.26615671009E+02  0.43042497670E+02  0.47000000000E+01 0. -1.
         -5    1    4    4    0  503  0.25329165746E+00  0.42943472739E+02 -0.26531620397E+03  0.26881031248E+03  0.47000000000E+01 0.  1.
          5    1    4    4  503    0 -0.78090141931E+01 -0.46147621401E+02 -0.19466212122E+03  0.20026486237E+03  0.47000000000E+01 0. -1.
         -5    1    3    3    0  502  0.37110474693E+02  0.18974034118E+02  0.24053635541E+02  0.48351511717E+02  0.47000000000E+01 0.  1.
<mgrwt>
<rscale>  0 0.91788053E+02</rscale>
<asrwt>0</asrwt>
<pdfrwt beam="1">  1        1 0.78693041E-01 0.91931823E+02</pdfrwt>
<pdfrwt beam="2">  1       -1 0.75329865E-02 0.91931823E+02</pdfrwt>
<totfact> 0.39289571E+03</totfact>
</mgrwt>
</event>
<event>
 8    1  0.6836165E-004  0.9338735E+02  0.7546771E-02  0.1296411E+00
          1   -1    0    0  501    0  0.00000000000E+00  0.00000000000E+00  0.55577364537E+03  0.55577364537E+03  0.00000000000E+00 0. -1.
         -1   -1    0    0    0  501 -0.00000000000E+00 -0.00000000000E+00 -0.19884823234E+02  0.19884823234E+02  0.00000000000E+00 0.  1.
         23    2    1    2    0    0 -0.38299580564E+01 -0.15047938748E+02  0.40396279635E+03  0.41402408464E+03  0.89380606333E+02 0.  0.
         23    2    1    2    0    0  0.38299580564E+01  0.15047938748E+02  0.13192602578E+03  0.16163438396E+03  0.92087397400E+02 0.  0.
          5    1    4    4  502    0  0.41754366351E+02  0.13502501955E+02  0.10762125121E+03  0.11631925198E+03  0.47000000000E+01 0. -1.
         -5    1    4    4    0  502 -0.37924408295E+02  0.15454367930E+01  0.24304774566E+02  0.45315131977E+02  0.47000000000E+01 0.  1.
          5    1    3    3  503    0 -0.60239139583E+01  0.36629617100E+02  0.20544495079E+03  0.20882464939E+03  0.47000000000E+01 0. -1.
         -5    1    3    3    0  503  0.21939559018E+01 -0.51677555849E+02  0.19851784557E+03  0.20519943526E+03  0.47000000000E+01 0.  1.
<mgrwt>
<rscale>  0 0.92713087E+02</rscale>
<asrwt>0</asrwt>
<pdfrwt beam="1">  1        1 0.85503626E-01 0.93387354E+02</pdfrwt>
<pdfrwt beam="2">  1       -1 0.30592040E-02 0.93387354E+02</pdfrwt>
<totfact> 0.13194232E+04</totfact>
</mgrwt>
</event>
<event>
 8    1  0.6836165E-004  0.9206109E+02  0.7546771E-02  0.1298067E+00
          2   -1    0    0  501    0  0.00000000000E+00  0.00000000000E+00  0.77591752794E+03  0.77591752794E+03  0.00000000000E+00 0. -1.
         -2   -1    0    0    0  501 -0.00000000000E+00 -0.00000000000E+00 -0.13138160441E+02  0.13138160441E+02  0.00000000000E+00 0.  1.
         23    2    1    2    0    0 -0.14594232200E+02  0.38326338593E+01  0.54397246370E+03  0.55167054674E+03  0.90590673848E+02 0.  0.
         23    2    1    2    0    0  0.14594232200E+02 -0.38326338593E+01  0.21880690380E+03  0.23738514163E+03  0.90816097817E+02 0.  0.
          5    1    3    3  502    0 -0.78399742861E+01  0.46983586072E+02  0.29232813436E+03  0.29622078032E+03  0.47000000000E+01 0. -1.
         -5    1    3    3    0  502 -0.67542579136E+01 -0.43150952212E+02  0.25164432934E+03  0.25544976642E+03  0.47000000000E+01 0.  1.
          5    1    4    4  503    0  0.16834901564E+02  0.36204134386E+02  0.16663326235E+03  0.17141437331E+03  0.47000000000E+01 0. -1.
         -5    1    4    4    0  503 -0.22406693645E+01 -0.40036768245E+02  0.52173641451E+02  0.65970768322E+02  0.47000000000E+01 0.  1.
<mgrwt>
<rscale>  0 0.92005448E+02</rscale>
<asrwt>0</asrwt>
<pdfrwt beam="1">  1        2 0.11937189E+00 0.92061090E+02</pdfrwt>
<pdfrwt beam="2">  1       -2 0.20212561E-02 0.92061090E+02</pdfrwt>
<totfact> 0.25575976E+04</totfact>
</mgrwt>
</event>
<event>
 8    1  0.6836165E-004  0.1232176E+03  0.7546771E-02  0.1239671E+00
         -1   -1    0    0    0  501 -0.00000000000E+00  0.00000000000E+00  0.22129964827E+02  0.22129964827E+02  0.00000000000E+00 0.  1.
          1   -1    0    0  501    0  0.00000000000E+00 -0.00000000000E+00 -0.72029715691E+03  0.72029715691E+03  0.00000000000E+00 0. -1.
         23    2    1    2    0    0 -0.69791058306E+02  0.44927640242E+02 -0.46074414229E+03  0.47693579612E+03  0.91067580916E+02 0.  0.
         23    2    1    2    0    0  0.69791058306E+02 -0.44927640242E+02 -0.23742304980E+03  0.26549132562E+03  0.85009733122E+02 0.  0.
          5    1    3    3  502    0 -0.36063023342E+02 -0.11981225230E+02 -0.63176165358E+02  0.73874280233E+02  0.47000000000E+01 0.  1.
         -5    1    4    4    0  503 -0.23805339274E+01 -0.43791758408E+02 -0.65447299566E+02  0.78922899508E+02  0.47000000000E+01 0.  1.
          5    1    4    4  503    0  0.72171592234E+02 -0.11358818340E+01 -0.17197575023E+03  0.18656842611E+03  0.47000000000E+01 0. -1.
         -5    1    3    3    0  502 -0.33728034964E+02  0.56908865471E+02 -0.39756797693E+03  0.40306151589E+03  0.47000000000E+01 0. -1.
<mgrwt>
<rscale>  0 0.12210077E+03</rscale>
<asrwt>0</asrwt>
<pdfrwt beam="1">  1        1 0.11081494E+00 0.12321765E+03</pdfrwt>
<pdfrwt beam="2">  1       -1 0.34046103E-02 0.12321765E+03</pdfrwt>
<totfact> 0.80792918E+03</totfact>
</mgrwt>
</event>
<event>
 8    1  0.6836165E-004  0.9548812E+02  0.7546771E-02  0.1290705E+00
         -1   -1    0    0    0  501 -0.00000000000E+00  0.00000000000E+00  0.19032082055E+03  0.19032082055E+03  0.00000000000E+00 0.  1.
          1   -1    0    0  501    0  0.00000000000E+00 -0.00000000000E+00 -0.85588513116E+02  0.85588513116E+02  0.00000000000E+00 0. -1.
         23    2    1    2    0    0 -0.55851184460E+01  0.26266461126E+02  0.14474083774E+03  0.17340095234E+03  0.91634380203E+02 0.  0.
         23    2    1    2    0    0  0.55851184460E+01 -0.26266461126E+02 -0.40008530306E+02  0.10250838132E+03  0.90477429319E+02 0.  0.
          5    1    4    4  502    0  0.22649807285E+02 -0.55541788580E+02 -0.25199550516E+02  0.65230448373E+02  0.47000000000E+01 0. -1.
         -5    1    3    3    0  503  0.34597766989E+02  0.33469317609E+02  0.10776566793E+03  0.11812167407E+03  0.47000000000E+01 0.  1.
          5    1    3    3  503    0 -0.40182885435E+02 -0.72028564825E+01  0.36975169816E+02  0.55279278272E+02  0.47000000000E+01 0. -1.
         -5    1    4    4    0  502 -0.17064688839E+02  0.29275327453E+02 -0.14808979790E+02  0.37277932951E+02  0.47000000000E+01 0.  1.
<mgrwt>
<rscale>  0 0.95209474E+02</rscale>
<asrwt>0</asrwt>
<pdfrwt beam="1">  1        1 0.13167464E-01 0.95488115E+02</pdfrwt>
<pdfrwt beam="2">  1       -1 0.29280126E-01 0.95488115E+02</pdfrwt>
<totfact> 0.44098352E+03</totfact>
</mgrwt>
</event>
<event>
 8    1  0.6836165E-004  0.1006672E+03  0.7546771E-02  0.1280962E+00
         -1   -1    0    0    0  501 -0.00000000000E+00  0.00000000000E+00  0.28798907053E+02  0.28798907053E+02  0.00000000000E+00 0.  1.
          1   -1    0    0  501    0  0.00000000000E+00 -0.00000000000E+00 -0.33936517297E+03  0.33936517297E+03  0.00000000000E+00 0. -1.
         23    2    1    2    0    0  0.34742096103E+02  0.26537135240E+02 -0.14885495393E+03  0.17969884968E+03  0.90678809430E+02 0.  0.
         23    2    1    2    0    0 -0.34742096103E+02 -0.26537135240E+02 -0.16171131199E+03  0.18846523034E+03  0.86356017940E+02 0.  0.
          5    1    3    3  502    0  0.18701265746E+01 -0.32479656649E+02 -0.52015553983E+02  0.61531563653E+02  0.47000000000E+01 0. -1.
         -5    1    4    4    0  503  0.10360652696E+01 -0.24837656646E+02 -0.27477249809E+01  0.25448430432E+02  0.47000000000E+01 0.  1.
          5    1    4    4  503    0 -0.35778161372E+02 -0.16994785945E+01 -0.15896358701E+03  0.16301679991E+03  0.47000000000E+01 0. -1.
         -5    1    3    3    0  502  0.32871969528E+02  0.59016791890E+02 -0.96839399949E+02  0.11816728603E+03  0.47000000000E+01 0.  1.
<mgrwt>
<rscale>  0 0.99683942E+02</rscale>
<asrwt>0</asrwt>
<pdfrwt beam="1">  1        1 0.52210030E-01 0.10066717E+03</pdfrwt>
<pdfrwt beam="2">  1       -1 0.44306008E-02 0.10066717E+03</pdfrwt>
<totfact> 0.14471711E+04</totfact>
</mgrwt>
</event>
<event>
 7    1  0.6836165E-004  0.1631643E+03  0.7546771E-02  0.1206020E+00
         -1   -1    0    0    0  501 -0.00000000000E+00  0.00000000000E+00  0.13537216762E+03  0.13537216762E+03  0.00000000000E+00 0.  1.
          1   -1    0    0  501    0  0.00000000000E+00 -0.00000000000E+00 -0.59174588370E+03  0.59174588370E+03  0.00000000000E+00 0. -1.
         23    2    1    2    0    0 -0.33031240372E+02 -0.43312474785E+02  0.10209674540E+03  0.14530033299E+03  0.87871542784E+02 0.  0.
          5    1    1    2  502    0 -0.31766035899E+01  0.91418051781E+02 -0.43284299675E+03  0.44242796118E+03  0.47000000000E+01 0. -1.
         -5    1    1    2    0  502  0.36207843962E+02 -0.48105576995E+02 -0.12562746474E+03  0.13938975715E+03  0.47000000000E+01 0.  1.
          5    1    3    3  503    0 -0.19689246334E+02 -0.60632726886E+02  0.31531436641E+02  0.71276331889E+02  0.47000000000E+01 0. -1.
         -5    1    3    3    0  503 -0.13341994038E+02  0.17320252101E+02  0.70565308761E+02  0.74024001096E+02  0.47000000000E+01 0.  1.
<mgrwt>
<rscale>  0 0.14557380E+03</rscale>
<asrwt>0</asrwt>
<pdfrwt beam="1">  1        1 0.91037829E-01 0.16316434E+03</pdfrwt>
<pdfrwt beam="2">  1       -1 0.20826487E-01 0.16316434E+03</pdfrwt>
<totfact> 0.68130937E+02</totfact>
</mgrwt>
</event>
<event>
 8    1  0.6836165E-004  0.9569998E+02  0.7546771E-02  0.1290732E+00
          2   -1    0    0  501    0  0.00000000000E+00  0.00000000000E+00  0.50501831082E+03  0.50501831082E+03  0.00000000000E+00 0. -1.
         -2   -1    0    0    0  501 -0.00000000000E+00 -0.00000000000E+00 -0.18125237999E+02  0.18125237999E+02  0.00000000000E+00 0.  1.
         23    2    1    2    0    0  0.61780191904E+01  0.21906717416E+02  0.20878033559E+03  0.22966870443E+03  0.92953822293E+02 0.  0.
         23    2    1    2    0    0 -0.61780191904E+01 -0.21906717416E+02  0.27811273724E+03  0.29347484439E+03  0.90899491127E+02 0.  0.
          5    1    4    4  502    0 -0.36687736940E+02 -0.21170757152E+01  0.23008928471E+03  0.23305287166E+03  0.47000000000E+01 0. -1.
         -5    1    3    3    0  503  0.28636015099E+02 -0.27367082369E+02  0.10858873474E+03  0.11568310970E+03  0.47000000000E+01 0.  1.
          5    1    3    3  503    0 -0.22457995909E+02  0.49273799785E+02  0.10019160084E+03  0.11398559473E+03  0.47000000000E+01 0. -1.
         -5    1    4    4    0  502  0.30509717750E+02 -0.19789641701E+02  0.48023452532E+02  0.60421972733E+02  0.47000000000E+01 0.  1.
<mgrwt>
<rscale>  0 0.95197505E+02</rscale>
<asrwt>0</asrwt>
<pdfrwt beam="1">  1        2 0.77695114E-01 0.95699975E+02</pdfrwt>
<pdfrwt beam="2">  1       -2 0.27884985E-02 0.95699975E+02</pdfrwt>
<totfact> 0.26284002E+04</totfact>
</mgrwt>
</event>
<event>
 8    1  0.6836165E-004  0.9617460E+02  0.7546771E-02  0.1288865E+00
         -2   -1    0    0    0  501 -0.00000000000E+00  0.00000000000E+00  0.33102121445E+02  0.33102121445E+02  0.00000000000E+00 0.  1.
          2   -1    0    0  501    0  0.00000000000E+00 -0.00000000000E+00 -0.47749283112E+03  0.47749283112E+03  0.00000000000E+00 0. -1.
         23    2    1    2    0    0  0.32319572951E+02 -0.24863427454E+00 -0.56712819989E+02  0.11116573486E+03  0.89982554088E+02 0.  0.
         23    2    1    2    0    0 -0.32319572951E+02  0.24863427454E+00 -0.38767788968E+03  0.39942921771E+03  0.90581108373E+02 0.  0.
          5    1    4    4  502    0 -0.55203232879E+02 -0.13966498845E+02 -0.33732529965E+03  0.34212995746E+03  0.47000000000E+01 0. -1.
         -5    1    3    3    0  503  0.55353736916E+02  0.16735515060E+02 -0.14249204917E+02  0.59743146014E+02  0.47000000000E+01 0.  1.
          5    1    3    3  503    0 -0.23034163966E+02 -0.16984149334E+02 -0.42463615072E+02  0.51422588842E+02  0.47000000000E+01 0. -1.
         -5    1    4    4    0  502  0.22883659929E+02  0.14215133119E+02 -0.50352590031E+02  0.57299260241E+02  0.47000000000E+01 0.  1.
<mgrwt>
<rscale>  0 0.96033407E+02</rscale>
<asrwt>0</asrwt>
<pdfrwt beam="1">  1        2 0.73460437E-01 0.96174601E+02</pdfrwt>
<pdfrwt beam="2">  1       -2 0.50926340E-02 0.96174601E+02</pdfrwt>
<totfact> 0.11529243E+04</totfact>
</mgrwt>
</event>
<event>
 8    1  0.6836165E-004  0.9821025E+02  0.7546771E-02  0.1285094E+00
         -2   -1    0    0    0  501 -0.00000000000E+00  0.00000000000E+00  0.21760378940E+02  0.21760378940E+02  0.00000000000E+00 0.  1.
          2   -1    0    0  501    0  0.00000000000E+00 -0.00000000000E+00 -0.78335710209E+03  0.78335710209E+03  0.00000000000E+00 0. -1.
         23    2    1    2    0    0 -0.19193441744E+02  0.26142774715E+02 -0.64723358873E+03  0.65437206873E+03  0.90772534846E+02 0.  0.
         23    2    1    2    0    0  0.19193441744E+02 -0.26142774715E+02 -0.11436313442E+03  0.15074541229E+03  0.92700700850E+02 0.  0.
          5    1    4    4  502    0 -0.31479390084E+02 -0.42408800178E+01 -0.78328451898E+02  0.84654435443E+02  0.47000000000E+01 0. -1.
         -5    1    3    3    0  503  0.35572368223E+02  0.32196527023E+01 -0.20420835494E+03  0.20736176545E+03  0.47000000000E+01 0.  1.
          5    1    3    3  503    0 -0.54765809967E+02  0.22923122013E+02 -0.44302523379E+03  0.44701030328E+03  0.47000000000E+01 0. -1.
         -5    1    4    4    0  502  0.50672831829E+02 -0.21901894697E+02 -0.36034682518E+02  0.66090976850E+02  0.47000000000E+01 0.  1.
<mgrwt>
<rscale>  0 0.97752585E+02</rscale>
<asrwt>0</asrwt>
<pdfrwt beam="1">  1        2 0.12051647E+00 0.98210248E+02</pdfrwt>
<pdfrwt beam="2">  1       -2 0.33477508E-02 0.98210248E+02</pdfrwt>
<totfact> 0.12235004E+04</totfact>
</mgrwt>
</event>
<event>
 8    1  0.6836165E-004  0.9796080E+02  0.7546771E-02  0.1289123E+00
         -2   -1    0    0    0  501 -0.00000000000E+00  0.00000000000E+00  0.10635252636E+03  0.10635252636E+03  0.00000000000E+00 0.  1.
          2   -1    0    0  501    0  0.00000000000E+00 -0.00000000000E+00 -0.40532363758E+03  0.40532363758E+03  0.00000000000E+00 0. -1.
         23    2    1    2    0    0 -0.19061561033E+02 -0.15310348446E+02  0.77297381471E+02  0.12478462924E+03  0.94860785539E+02 0.  0.
         23    2    1    2    0    0  0.19061561033E+02  0.15310348446E+02 -0.37626849270E+03  0.38689153470E+03  0.86656397034E+02 0.  0.
          5    1    3    3  502    0 -0.45218056128E+02  0.12434867911E+02  0.11376571749E+02  0.48485203153E+02  0.47000000000E+01 0. -1.
         -5    1    4    4    0  503  0.43484477110E+02  0.31825341451E+02 -0.16797565731E+03  0.17647000752E+03  0.47000000000E+01 0.  1.
          5    1    4    4  503    0 -0.24422916077E+02 -0.16514993005E+02 -0.20829283539E+03  0.21042152718E+03  0.47000000000E+01 0. -1.
         -5    1    3    3    0  502  0.26156495095E+02 -0.27745216358E+02  0.65920809723E+02  0.76299426085E+02  0.47000000000E+01 0.  1.
<mgrwt>
<rscale>  0 0.95917380E+02</rscale>
<asrwt>0</asrwt>
<pdfrwt beam="1">  1        2 0.62357483E-01 0.97960801E+02</pdfrwt>
<pdfrwt beam="2">  1       -2 0.16361927E-01 0.97960801E+02</pdfrwt>
<totfact> 0.22463904E+03</totfact>
</mgrwt>
</event>
<event>
 8    1  0.6836165E-004  0.1289099E+03  0.7546771E-02  0.1233051E+00
          4   -1    0    0  501    0  0.00000000000E+00  0.00000000000E+00  0.48914198308E+02  0.48914198308E+02  0.00000000000E+00 0.  1.
         -4   -1    0    0    0  501 -0.00000000000E+00 -0.00000000000E+00 -0.46168306225E+03  0.46168306225E+03  0.00000000000E+00 0. -1.
         23    2    1    2    0    0  0.22958709803E+02 -0.71752336645E+02 -0.34517354491E+03  0.36504010420E+03  0.91836819409E+02 0.  0.
         23    2    1    2    0    0 -0.22958709803E+02  0.71752336645E+02 -0.67595319030E+02  0.14555715636E+03  0.10460525054E+03 0.  0.
          5    1    4    4  502    0 -0.47610206385E+02  0.56792774280E+02 -0.83946311652E+02  0.11207686738E+03  0.47000000000E+01 0. -1.
         -5    1    4    4    0  502  0.24651496582E+02  0.14959562365E+02  0.16350992622E+02  0.33480288972E+02  0.47000000000E+01 0.  1.
          5    1    3    3  503    0  0.88693470532E+01 -0.89561763236E+02 -0.31059155590E+03  0.32340250362E+03  0.47000000000E+01 0. -1.
         -5    1    3    3    0  503  0.14089362750E+02  0.17809426591E+02 -0.34581989007E+02  0.41637600578E+02  0.47000000000E+01 0.  1.
<mgrwt>
<rscale>  0 0.12630008E+03</rscale>
<asrwt>0</asrwt>
<pdfrwt beam="1">  1        4 0.75252614E-02 0.12890989E+03</pdfrwt>
<pdfrwt beam="2">  1       -4 0.71028162E-01 0.12890989E+03</pdfrwt>
<totfact> 0.37195666E+02</totfact>
</mgrwt>
</event>
<event>
 8    1  0.6836165E-004  0.1171825E+03  0.7546771E-02  0.1248053E+00
         -1   -1    0    0    0  501 -0.00000000000E+00  0.00000000000E+00  0.13870932050E+02  0.13870932050E+02  0.00000000000E+00 0.  1.
          1   -1    0    0  501    0  0.00000000000E+00 -0.00000000000E+00 -0.10997907072E+04  0.10997907072E+04  0.00000000000E+00 0. -1.
         23    2    1    2    0    0 -0.71678253472E+02 -0.10794106558E+02 -0.72374236051E+03  0.73316761427E+03  0.92073130983E+02 0.  0.
         23    2    1    2    0    0  0.71678253472E+02  0.10794106558E+02 -0.36217741467E+03  0.38049402501E+03  0.91372526615E+02 0.  0.
          5    1    4    4  502    0  0.72279220010E+02  0.38848315577E+02 -0.20683283955E+03  0.22256547528E+03  0.47000000000E+01 0. -1.
         -5    1    4    4    0  502 -0.60096653777E+00 -0.28054209019E+02 -0.15534457511E+03  0.15792854974E+03  0.47000000000E+01 0.  1.
          5    1    3    3  503    0 -0.62004174012E+02  0.24311941791E+02 -0.61006965850E+03  0.61371220155E+03  0.47000000000E+01 0. -1.
         -5    1    3    3    0  503 -0.96740794599E+01 -0.35106048349E+02 -0.11367270201E+03  0.11945541272E+03  0.47000000000E+01 0.  1.
<mgrwt>
<rscale>  0 0.11704487E+03</rscale>
<asrwt>0</asrwt>
<pdfrwt beam="1">  1        1 0.16919851E+00 0.11718253E+03</pdfrwt>
<pdfrwt beam="2">  1       -1 0.21339903E-02 0.11718253E+03</pdfrwt>
<totfact> 0.80971952E+03</totfact>
</mgrwt>
</event>
<event>
 8    1  0.6836165E-004  0.1085999E+03  0.7546771E-02  0.1263455E+00
         -2   -1    0    0    0  501 -0.00000000000E+00  0.00000000000E+00  0.38785111033E+02  0.38785111033E+02  0.00000000000E+00 0.  1.
          2   -1    0    0  501    0  0.00000000000E+00 -0.00000000000E+00 -0.30250451303E+03  0.30250451303E+03  0.00000000000E+00 0. -1.
         23    2    1    2    0    0 -0.48682403560E+02 -0.26418273248E+02 -0.13361538608E+03  0.17218307311E+03  0.93413262922E+02 0.  0.
         23    2    1    2    0    0  0.48682403560E+02  0.26418273248E+02 -0.13010401592E+03  0.16910655096E+03  0.92747339806E+02 0.  0.
          5    1    3    3  502    0 -0.47355954835E+02 -0.49045041012E+02 -0.48044537054E+02  0.83536638950E+02  0.47000000000E+01 0. -1.
         -5    1    3    3    0  502 -0.13264487245E+01  0.22626767765E+02 -0.85570849031E+02  0.88646434162E+02  0.47000000000E+01 0.  1.
          5    1    4    4  503    0  0.55928038125E+02 -0.13311603169E+02 -0.10894377666E+03  0.12327197857E+03  0.47000000000E+01 0. -1.
         -5    1    4    4    0  503 -0.72456345654E+01  0.39729876417E+02 -0.21160239252E+02  0.45834572383E+02  0.47000000000E+01 0.  1.
<mgrwt>
<rscale>  0 0.10845655E+03</rscale>
<asrwt>0</asrwt>
<pdfrwt beam="1">  1        2 0.46539157E-01 0.10859990E+03</pdfrwt>
<pdfrwt beam="2">  1       -2 0.59669400E-02 0.10859990E+03</pdfrwt>
<totfact> 0.14894680E+04</totfact>
</mgrwt>
</event>
<event>
 8    1  0.6836165E-004  0.1049367E+03  0.7546771E-02  0.1270526E+00
         -2   -1    0    0    0  501 -0.00000000000E+00  0.00000000000E+00  0.15683425150E+02  0.15683425150E+02  0.00000000000E+00 0.  1.
          2   -1    0    0  501    0  0.00000000000E+00 -0.00000000000E+00 -0.69929698696E+03  0.69929698696E+03  0.00000000000E+00 0. -1.
         23    2    1    2    0    0  0.30895934589E+02 -0.40676094972E+02 -0.32934357661E+03  0.34565721125E+03  0.91665766553E+02 0.  0.
         23    2    1    2    0    0 -0.30895934589E+02  0.40676094972E+02 -0.35426998520E+03  0.36932320086E+03  0.91012640903E+02 0.  0.
          5    1    3    3  502    0  0.33682453449E+02  0.75664654351E+01 -0.43561757867E+02  0.55780604318E+02  0.47000000000E+01 0. -1.
         -5    1    4    4    0  503 -0.57188328012E+02  0.47592651150E+02 -0.28902034557E+03  0.29848017599E+03  0.47000000000E+01 0.  1.
          5    1    4    4  503    0  0.26292393423E+02 -0.69165561781E+01 -0.65249639622E+02  0.70843024865E+02  0.47000000000E+01 0. -1.
         -5    1    3    3    0  502 -0.27865188602E+01 -0.48242560407E+02 -0.28578181875E+03  0.28987660693E+03  0.47000000000E+01 0.  1.
<mgrwt>
<rscale>  0 0.10479392E+03</rscale>
<asrwt>0</asrwt>
<pdfrwt beam="1">  1        2 0.10758417E+00 0.10493672E+03</pdfrwt>
<pdfrwt beam="2">  1       -2 0.24128343E-02 0.10493672E+03</pdfrwt>
<totfact> 0.22696562E+04</totfact>
</mgrwt>
</event>
<event>
 8    1  0.6836165E-004  0.9841587E+02  0.7546771E-02  0.1284168E+00
         -1   -1    0    0    0  501 -0.00000000000E+00  0.00000000000E+00  0.31074499648E+03  0.31074499648E+03  0.00000000000E+00 0.  1.
          1   -1    0    0  501    0  0.00000000000E+00 -0.00000000000E+00 -0.49744340033E+02  0.49744340033E+02  0.00000000000E+00 0. -1.
         23    2    1    2    0    0 -0.37178966477E+02 -0.45369972288E+01  0.19098813395E+02  0.99333854064E+02  0.89997722182E+02 0.  0.
         23    2    1    2    0    0  0.37178966477E+02  0.45369972288E+01  0.24190184305E+03  0.26115548245E+03  0.91010023898E+02 0.  0.
          5    1    4    4  502    0 -0.16578756936E+02 -0.15415663113E+02  0.15639441581E+03  0.15809427930E+03  0.47000000000E+01 0. -1.
         -5    1    3    3    0  503 -0.20567558340E+02  0.37565740255E+02  0.30051208474E+02  0.52529748027E+02  0.47000000000E+01 0.  1.
          5    1    3    3  503    0 -0.16611408136E+02 -0.42102737484E+02 -0.10952395079E+02  0.46804106037E+02  0.47000000000E+01 0. -1.
         -5    1    4    4    0  502  0.53757723413E+02  0.19952660341E+02  0.85507427240E+02  0.10306120315E+03  0.47000000000E+01 0.  1.
<mgrwt>
<rscale>  0 0.98181195E+02</rscale>
<asrwt>0</asrwt>
<pdfrwt beam="1">  1        1 0.76529755E-02 0.98415874E+02</pdfrwt>
<pdfrwt beam="2">  1       -1 0.47806922E-01 0.98415874E+02</pdfrwt>
<totfact> 0.38724550E+03</totfact>
</mgrwt>
</event>
<event>
 8    1  0.6836165E-004  0.9997794E+02  0.7546771E-02  0.1280713E+00
          2   -1    0    0  501    0  0.00000000000E+00  0.00000000000E+00  0.54546055929E+03  0.54546055929E+03  0.00000000000E+00 0. -1.
         -2   -1    0    0    0  501 -0.00000000000E+00 -0.00000000000E+00 -0.23128937921E+02  0.23128937921E+02  0.00000000000E+00 0.  1.
         23    2    1    2    0    0  0.25448711106E+02  0.27427633035E+02  0.13060324710E+03  0.16447734136E+03  0.92712867052E+02 0.  0.
         23    2    1    2    0    0 -0.25448711106E+02 -0.27427633035E+02  0.39172837427E+03  0.40411215585E+03  0.91954354694E+02 0.  0.
          5    1    4    4  502    0 -0.55635742976E+02 -0.17312271939E+01  0.17376462374E+03  0.18252278627E+03  0.47000000000E+01 0.  1.
         -5    1    4    4    0  502  0.30187031870E+02 -0.25696405841E+02  0.21796375052E+03  0.22158936958E+03  0.47000000000E+01 0. -1.
          5    1    3    3  503    0  0.41074533951E+02 -0.15182791113E+02  0.28008616151E+02  0.52193937042E+02  0.47000000000E+01 0. -1.
         -5    1    3    3    0  503 -0.15625822846E+02  0.42610424148E+02  0.10259463095E+03  0.11228340432E+03  0.47000000000E+01 0.  1.
<mgrwt>
<rscale>  0 0.99801724E+02</rscale>
<asrwt>0</asrwt>
<pdfrwt beam="1">  1        2 0.83916999E-01 0.99977936E+02</pdfrwt>
<pdfrwt beam="2">  1       -2 0.35582986E-02 0.99977936E+02</pdfrwt>
<totfact> 0.16999692E+04</totfact>
</mgrwt>
</event>
<event>
 8    1  0.6836165E-004  0.1065306E+03  0.7546771E-02  0.1275104E+00
          3   -1    0    0  501    0  0.00000000000E+00  0.00000000000E+00  0.90970312757E+02  0.90970312757E+02  0.00000000000E+00 0. -1.
         -3   -1    0    0    0  501 -0.00000000000E+00 -0.00000000000E+00 -0.11346143625E+03  0.11346143625E+03  0.00000000000E+00 0.  1.
         23    2    1    2    0    0  0.10615576271E+01  0.11147273180E+02  0.11113164751E+02  0.10710867592E+03  0.10594044281E+03 0.  0.
         23    2    1    2    0    0 -0.10615576271E+01 -0.11147273180E+02 -0.33604288247E+02  0.97323073092E+02  0.90648462554E+02 0.  0.
          5    1    3    3  502    0  0.25720695196E+02  0.33988523496E+02  0.42864934388E+02  0.60632223206E+02  0.47000000000E+01 0. -1.
         -5    1    4    4    0  503 -0.21234672024E+02 -0.45302461777E+02 -0.11060193108E+02  0.51455244734E+02  0.47000000000E+01 0.  1.
          5    1    4    4  503    0  0.20173114397E+02  0.34155188597E+02 -0.22544095139E+02  0.45867828358E+02  0.47000000000E+01 0. -1.
         -5    1    3    3    0  502 -0.24659137569E+02 -0.22841250316E+02 -0.31751769637E+02  0.46476452712E+02  0.47000000000E+01 0.  1.
<mgrwt>
<rscale>  0 0.10251041E+03</rscale>
<asrwt>0</asrwt>
<pdfrwt beam="1">  1        3 0.13995433E-01 0.10653059E+03</pdfrwt>
<pdfrwt beam="2">  1       -3 0.17455606E-01 0.10653059E+03</pdfrwt>
<totfact> 0.26058157E+03</totfact>
</mgrwt>
</event>
<event>
 8    1  0.6836165E-004  0.1017998E+03  0.7546771E-02  0.1277581E+00
          1   -1    0    0  501    0  0.00000000000E+00  0.00000000000E+00  0.21547237626E+02  0.21547237626E+02  0.00000000000E+00 0. -1.
         -1   -1    0    0    0  501 -0.00000000000E+00 -0.00000000000E+00 -0.47344433077E+03  0.47344433077E+03  0.00000000000E+00 0.  1.
         23    2    1    2    0    0 -0.22273851759E+02 -0.35568456734E+02 -0.23890548872E+03  0.25892245788E+03  0.90574649144E+02 0.  0.
         23    2    1    2    0    0  0.22273851759E+02  0.35568456734E+02 -0.21299160442E+03  0.23606911052E+03  0.92746761658E+02 0.  0.
          5    1    4    4  502    0 -0.25466474080E+02  0.27505879025E+02 -0.34823075939E+02  0.51379483268E+02  0.47000000000E+01 0. -1.
         -5    1    3    3    0  503  0.20853531333E+02 -0.10181103543E+02 -0.17971833045E+03  0.18127132409E+03  0.47000000000E+01 0.  1.
          5    1    3    3  503    0 -0.43127383092E+02 -0.25387353191E+02 -0.59187158267E+02  0.77651133786E+02  0.47000000000E+01 0. -1.
         -5    1    4    4    0  502  0.47740325840E+02  0.80625777094E+01 -0.17816852849E+03  0.18468962725E+03  0.47000000000E+01 0.  1.
<mgrwt>
<rscale>  0 0.10130244E+03</rscale>
<asrwt>0</asrwt>
<pdfrwt beam="1">  1        1 0.33149595E-02 0.10179981E+03</pdfrwt>
<pdfrwt beam="2">  1       -1 0.72837593E-01 0.10179981E+03</pdfrwt>
<totfact> 0.54564310E+03</totfact>
</mgrwt>
</event>
<event>
 8    1  0.6836165E-004  0.1031129E+03  0.7546771E-02  0.1275226E+00
          1   -1    0    0  501    0  0.00000000000E+00  0.00000000000E+00  0.45758720723E+03  0.45758720723E+03  0.00000000000E+00 0. -1.
         -1   -1    0    0    0  501 -0.00000000000E+00 -0.00000000000E+00 -0.37803490560E+02  0.37803490560E+02  0.00000000000E+00 0.  1.
         23    2    1    2    0    0 -0.27881874405E+02  0.33995371519E+02  0.51445647002E+02  0.11289205619E+03  0.90359711991E+02 0.  0.
         23    2    1    2    0    0  0.27881874405E+02 -0.33995371519E+02  0.36833806967E+03  0.38249864160E+03  0.93269464735E+02 0.  0.
          5    1    3    3  502    0  0.24678770079E+02 -0.33654110087E+01  0.39813184266E+02  0.47196899530E+02  0.47000000000E+01 0. -1.
         -5    1    3    3    0  502 -0.52560644484E+02  0.37360782528E+02  0.11632462736E+02  0.65695156663E+02  0.47000000000E+01 0.  1.
          5    1    4    4  503    0  0.12919128837E+02 -0.62903782191E+02  0.29764077151E+03  0.30452571085E+03  0.47000000000E+01 0. -1.
         -5    1    4    4    0  503  0.14962745568E+02  0.28908410672E+02  0.70697298164E+02  0.77972930753E+02  0.47000000000E+01 0.  1.
<mgrwt>
<rscale>  0 0.10245050E+03</rscale>
<asrwt>0</asrwt>
<pdfrwt beam="1">  1        1 0.70398028E-01 0.10311293E+03</pdfrwt>
<pdfrwt beam="2">  1       -1 0.58159219E-02 0.10311293E+03</pdfrwt>
<totfact> 0.66957285E+03</totfact>
</mgrwt>
</event>
<event>
 8    1  0.6836165E-004  0.1207002E+03  0.7546771E-02  0.1242261E+00
         -2   -1    0    0    0  501 -0.00000000000E+00  0.00000000000E+00  0.70504211342E+02  0.70504211342E+02  0.00000000000E+00 0.  1.
          2   -1    0    0  501    0  0.00000000000E+00 -0.00000000000E+00 -0.28004067658E+03  0.28004067658E+03  0.00000000000E+00 0. -1.
         23    2    1    2    0    0 -0.77666700980E+02 -0.19771026995E+02 -0.19554665878E+03  0.22979778861E+03  0.90252523163E+02 0.  0.
         23    2    1    2    0    0  0.77666700980E+02  0.19771026995E+02 -0.13989806451E+02  0.12074709931E+03  0.89225205846E+02 0.  0.
          5    1    3    3  502    0 -0.46467391200E+02  0.11948006463E+02 -0.17320807495E+03  0.17979182554E+03  0.47000000000E+01 0. -1.
         -5    1    4    4    0  503  0.76175069613E+02 -0.17432230004E+01 -0.40365243775E+02  0.86354634861E+02  0.47000000000E+01 0.  1.
          5    1    4    4  503    0  0.14916313669E+01  0.21514249996E+02  0.26375437324E+02  0.34392464452E+02  0.47000000000E+01 0. -1.
         -5    1    3    3    0  502 -0.31199309780E+02 -0.31719033458E+02 -0.22338583830E+02  0.50005963062E+02  0.47000000000E+01 0.  1.
<mgrwt>
<rscale>  0 0.12050814E+03</rscale>
<asrwt>0</asrwt>
<pdfrwt beam="1">  1        2 0.43083182E-01 0.12070016E+03</pdfrwt>
<pdfrwt beam="2">  1       -2 0.10846802E-01 0.12070016E+03</pdfrwt>
<totfact> 0.64910285E+03</totfact>
</mgrwt>
</event>
<event>
 8    1  0.6836165E-004  0.1062117E+03  0.7546771E-02  0.1268098E+00
         -2   -1    0    0    0  501 -0.00000000000E+00  0.00000000000E+00  0.95618097429E+02  0.95618097429E+02  0.00000000000E+00 0.  1.
          2   -1    0    0  501    0  0.00000000000E+00 -0.00000000000E+00 -0.11747859906E+03  0.11747859906E+03  0.00000000000E+00 0. -1.
         23    2    1    2    0    0 -0.75298145380E+01 -0.53398505033E+02 -0.55861816129E+01  0.10564540814E+03  0.90673305821E+02 0.  0.
         23    2    1    2    0    0  0.75298145380E+01  0.53398505033E+02 -0.16274320013E+02  0.10745128835E+03  0.91503155295E+02 0.  0.
          5    1    3    3  502    0 -0.33419845528E+02  0.22961242395E+01  0.19603039643E+02  0.39096386341E+02  0.47000000000E+01 0. -1.
         -5    1    4    4    0  503  0.42604484282E+02  0.39827837598E+02  0.12541960560E+02  0.59839698390E+02  0.47000000000E+01 0.  1.
          5    1    4    4  503    0 -0.35074669744E+02  0.13570667435E+02 -0.28816280573E+02  0.47611589958E+02  0.47000000000E+01 0. -1.
         -5    1    3    3    0  502  0.25890030990E+02 -0.55694629273E+02 -0.25189221256E+02  0.66549021796E+02  0.47000000000E+01 0.  1.
<mgrwt>
<rscale>  0 0.10603273E+03</rscale>
<asrwt>0</asrwt>
<pdfrwt beam="1">  1        2 0.18073631E-01 0.10621170E+03</pdfrwt>
<pdfrwt beam="2">  1       -2 0.14710477E-01 0.10621170E+03</pdfrwt>
<totfact> 0.10165694E+04</totfact>
</mgrwt>
</event>
<event>
 8    1  0.6836165E-004  0.1209285E+03  0.7546771E-02  0.1243897E+00
         -1   -1    0    0    0  501 -0.00000000000E+00  0.00000000000E+00  0.14071234982E+02  0.14071234982E+02  0.00000000000E+00 0.  1.
          1   -1    0    0  501    0  0.00000000000E+00 -0.00000000000E+00 -0.99213151750E+03  0.99213151750E+03  0.00000000000E+00 0. -1.
         23    2    1    2    0    0  0.56247485630E+02 -0.43613691391E+02 -0.47572345642E+03  0.48951523505E+03  0.90809826821E+02 0.  0.
         23    2    1    2    0    0 -0.56247485630E+02  0.43613691391E+02 -0.50233682610E+03  0.51668751743E+03  0.97763848602E+02 0.  0.
          5    1    3    3  502    0  0.47904247128E+02  0.93379531732E+01 -0.11821871451E+03  0.12798347051E+03  0.47000000000E+01 0. -1.
         -5    1    3    3    0  502  0.83432385022E+01 -0.52951644564E+02 -0.35750474190E+03  0.36153176454E+03  0.47000000000E+01 0.  1.
          5    1    4    4  503    0  0.20455076467E+02 -0.26785050702E+01 -0.20559821374E+03  0.20668405850E+03  0.47000000000E+01 0. -1.
         -5    1    4    4    0  503 -0.76702562097E+02  0.46292196461E+02 -0.29673861236E+03  0.31000345893E+03  0.47000000000E+01 0.  1.
<mgrwt>
<rscale>  0 0.11951664E+03</rscale>
<asrwt>0</asrwt>
<pdfrwt beam="1">  1        1 0.15263560E+00 0.12092851E+03</pdfrwt>
<pdfrwt beam="2">  1       -1 0.21648056E-02 0.12092851E+03</pdfrwt>
<totfact> 0.94867610E+03</totfact>
</mgrwt>
</event>
<event>
 8    1  0.6836165E-004  0.1011521E+03  0.7546771E-02  0.1278559E+00
         -2   -1    0    0    0  501 -0.00000000000E+00  0.00000000000E+00  0.45790605416E+02  0.45790605416E+02  0.00000000000E+00 0.  1.
          2   -1    0    0  501    0  0.00000000000E+00 -0.00000000000E+00 -0.25676372132E+03  0.25676372132E+03  0.00000000000E+00 0. -1.
         23    2    1    2    0    0 -0.30587553962E+02 -0.26756382466E+02 -0.48157499955E+02  0.11087577678E+03  0.91229329791E+02 0.  0.
         23    2    1    2    0    0  0.30587553962E+02  0.26756382466E+02 -0.16281561595E+03  0.19167854996E+03  0.92629580899E+02 0.  0.
          5    1    4    4  502    0  0.22071110822E+02  0.55727323317E+02 -0.62131084204E+02  0.86458256525E+02  0.47000000000E+01 0. -1.
         -5    1    4    4    0  502  0.85164431408E+01 -0.28970940851E+02 -0.10068453175E+03  0.10522029344E+03  0.47000000000E+01 0.  1.
          5    1    3    3  503    0 -0.65488397607E+01  0.33671144141E+02 -0.18306751025E+02  0.39164529655E+02  0.47000000000E+01 0. -1.
         -5    1    3    3    0  503 -0.24038714202E+02 -0.60427526607E+02 -0.29850748929E+02  0.71711247123E+02  0.47000000000E+01 0.  1.
<mgrwt>
<rscale>  0 0.10083037E+03</rscale>
<asrwt>0</asrwt>
<pdfrwt beam="1">  1        2 0.39502111E-01 0.10115207E+03</pdfrwt>
<pdfrwt beam="2">  1       -2 0.70447085E-02 0.10115207E+03</pdfrwt>
<totfact> 0.13673951E+04</totfact>
</mgrwt>
</event>
<event>
 8    1  0.6836165E-004  0.9393255E+02  0.7546771E-02  0.1293747E+00
         -1   -1    0    0    0  501 -0.00000000000E+00  0.00000000000E+00  0.10101840801E+02  0.10101840801E+02  0.00000000000E+00 0.  1.
          1   -1    0    0  501    0  0.00000000000E+00 -0.00000000000E+00 -0.88573453838E+03  0.88573453838E+03  0.00000000000E+00 0. -1.
         23    2    1    2    0    0 -0.17024800912E+02  0.67789870654E+01 -0.49494818681E+03  0.50373432639E+03  0.91862753340E+02 0.  0.
         23    2    1    2    0    0  0.17024800912E+02 -0.67789870654E+01 -0.38068451077E+03  0.39210205279E+03  0.92127762086E+02 0.  0.
          5    1    4    4  502    0 -0.33154922941E+02 -0.70685465073E+01 -0.24462937460E+03  0.24701180980E+03  0.47000000000E+01 0.  1.
         -5    1    4    4    0  502  0.50179723853E+02  0.28955944186E+00 -0.13605513617E+03  0.14509024299E+03  0.47000000000E+01 0. -1.
          5    1    3    3  503    0 -0.49153148393E+02 -0.78926054228E+01 -0.18132278348E+03  0.18809137946E+03  0.47000000000E+01 0.  1.
         -5    1    3    3    0  503  0.32128347481E+02  0.14671592488E+02 -0.31362540333E+03  0.31564294694E+03  0.47000000000E+01 0. -1.
<mgrwt>
<rscale>  0 0.93867502E+02</rscale>
<asrwt>0</asrwt>
<pdfrwt beam="1">  1        1 0.13626679E+00 0.93932545E+02</pdfrwt>
<pdfrwt beam="2">  1       -1 0.15541300E-02 0.93932545E+02</pdfrwt>
<totfact> 0.17966105E+04</totfact>
</mgrwt>
</event>
<event>
 8    1  0.6836165E-004  0.9388753E+02  0.7546771E-02  0.1293890E+00
          1   -1    0    0  501    0  0.00000000000E+00  0.00000000000E+00  0.13701176106E+03  0.13701176106E+03  0.00000000000E+00 0. -1.
         -1   -1    0    0    0  501 -0.00000000000E+00 -0.00000000000E+00 -0.36619333923E+03  0.36619333923E+03  0.00000000000E+00 0.  1.
         23    2    1    2    0    0  0.19243773479E+02 -0.92797013949E+01 -0.34307455984E+03  0.35560266451E+03  0.91086034721E+02 0.  0.
         23    2    1    2    0    0 -0.19243773479E+02  0.92797013949E+01  0.11389298168E+03  0.14760243578E+03  0.91424461153E+02 0.  0.
          5    1    3    3  502    0 -0.25073764922E+01 -0.45433147483E+02 -0.11794301126E+03  0.12650336649E+03  0.47000000000E+01 0. -1.
         -5    1    3    3    0  502  0.21751149972E+02  0.36153446088E+02 -0.22513154858E+03  0.22909929803E+03  0.47000000000E+01 0.  1.
          5    1    4    4  503    0 -0.40203437791E+02 -0.19977345259E+01  0.11147718116E+02  0.42031761474E+02  0.47000000000E+01 0. -1.
         -5    1    4    4    0  503  0.20959664312E+02  0.11277435921E+02  0.10274526356E+03  0.10557067431E+03  0.47000000000E+01 0.  1.
<mgrwt>
<rscale>  0 0.93805040E+02</rscale>
<asrwt>0</asrwt>
<pdfrwt beam="1">  1        1 0.21078733E-01 0.93887527E+02</pdfrwt>
<pdfrwt beam="2">  1       -1 0.56337436E-01 0.93887527E+02</pdfrwt>
<totfact> 0.77269890E+02</totfact>
</mgrwt>
</event>
<event>
 8    1  0.6836165E-004  0.9233332E+02  0.7546771E-02  0.1299125E+00
         -1   -1    0    0    0  501 -0.00000000000E+00  0.00000000000E+00  0.11672872140E+02  0.11672872140E+02  0.00000000000E+00 0.  1.
          1   -1    0    0  501    0  0.00000000000E+00 -0.00000000000E+00 -0.70789221388E+03  0.70789221388E+03  0.00000000000E+00 0. -1.
         23    2    1    2    0    0 -0.14133459287E+02  0.14937769147E+02 -0.35930096459E+03  0.37022365537E+03  0.86864723680E+02 0.  0.
         23    2    1    2    0    0  0.14133459287E+02 -0.14937769147E+02 -0.33691837715E+03  0.34934143065E+03  0.90014169384E+02 0.  0.
          5    1    3    3  502    0  0.37241947679E+01  0.41218458359E+02 -0.29913513005E+03  0.30202110351E+03  0.47000000000E+01 0. -1.
         -5    1    4    4    0  503 -0.35411581082E+02  0.93928039285E+01 -0.13528883611E+03  0.14024037940E+03  0.47000000000E+01 0.  1.
          5    1    4    4  503    0  0.49545040369E+02 -0.24330573076E+02 -0.20162954104E+03  0.20910105125E+03  0.47000000000E+01 0. -1.
         -5    1    3    3    0  502 -0.17857654055E+02 -0.26280689212E+02 -0.60165834538E+02  0.68202551855E+02  0.47000000000E+01 0.  1.
<mgrwt>
<rscale>  0 0.91556682E+02</rscale>
<asrwt>0</asrwt>
<pdfrwt beam="1">  1        1 0.10890650E+00 0.92333322E+02</pdfrwt>
<pdfrwt beam="2">  1       -1 0.17958264E-02 0.92333322E+02</pdfrwt>
<totfact> 0.20345883E+04</totfact>
</mgrwt>
</event>
<event>
 8    1  0.6836165E-004  0.9496052E+02  0.7546771E-02  0.1292821E+00
         -3   -1    0    0    0  501 -0.00000000000E+00  0.00000000000E+00  0.82146189746E+02  0.82146189746E+02  0.00000000000E+00 0.  1.
          3   -1    0    0  501    0  0.00000000000E+00 -0.00000000000E+00 -0.18661954122E+03  0.18661954122E+03  0.00000000000E+00 0. -1.
         23    2    1    2    0    0  0.28307139989E+02 -0.21463779336E+01  0.36158188293E+02  0.99075628767E+02  0.87764825085E+02 0.  0.
         23    2    1    2    0    0 -0.28307139989E+02  0.21463779336E+01 -0.14063153977E+03  0.16969010220E+03  0.90617877345E+02 0.  0.
          5    1    4    4  502    0  0.13316633438E+02 -0.15317100416E+02 -0.11638757393E+03  0.11823748837E+03  0.47000000000E+01 0. -1.
         -5    1    4    4    0  502 -0.41623773427E+02  0.17463478350E+02 -0.24243965844E+02  0.51452613833E+02  0.47000000000E+01 0.  1.
          5    1    3    3  503    0 -0.24877316020E+02 -0.11680610860E+02 -0.81419450233E+01  0.29046493613E+02  0.47000000000E+01 0. -1.
         -5    1    3    3    0  503  0.53184456010E+02  0.95342329268E+01  0.44300133317E+02  0.70029135154E+02  0.47000000000E+01 0.  1.
<mgrwt>
<rscale>  0 0.94273442E+02</rscale>
<asrwt>0</asrwt>
<pdfrwt beam="1">  1        3 0.28710699E-01 0.94960522E+02</pdfrwt>
<pdfrwt beam="2">  1       -3 0.12637875E-01 0.94960522E+02</pdfrwt>
<totfact> 0.12527488E+03</totfact>
</mgrwt>
</event>
<event>
 8    1  0.6836165E-004  0.1111501E+03  0.7546771E-02  0.1261928E+00
         -1   -1    0    0    0  501 -0.00000000000E+00  0.00000000000E+00  0.18444209357E+02  0.18444209357E+02  0.00000000000E+00 0.  1.
          1   -1    0    0  501    0  0.00000000000E+00 -0.00000000000E+00 -0.84980350855E+03  0.84980350855E+03  0.00000000000E+00 0. -1.
         23    2    1    2    0    0  0.62151300342E+02 -0.68669175354E+01 -0.20362031786E+03  0.23198186430E+03  0.91893486318E+02 0.  0.
         23    2    1    2    0    0 -0.62151300342E+02  0.68669175354E+01 -0.62773898133E+03  0.63626585360E+03  0.82873814280E+02 0.  0.
          5    1    4    4  502    0  0.19426132569E+02  0.91709889266E+01 -0.12303441347E+03  0.12498415325E+03  0.47000000000E+01 0. -1.
         -5    1    3    3    0  503  0.87917508820E+01 -0.44524326118E+02 -0.86882948132E+02  0.98134841804E+02  0.47000000000E+01 0.  1.
          5    1    3    3  503    0  0.53359549460E+02  0.37657408583E+02 -0.11673736973E+03  0.13384702250E+03  0.47000000000E+01 0. -1.
         -5    1    4    4    0  502 -0.81577432911E+02 -0.23040713912E+01 -0.50470456785E+03  0.51128170035E+03  0.47000000000E+01 0.  1.
<mgrwt>
<rscale>  0 0.10926971E+03</rscale>
<asrwt>0</asrwt>
<pdfrwt beam="1">  1        1 0.13073901E+00 0.11115013E+03</pdfrwt>
<pdfrwt beam="2">  1       -1 0.28375705E-02 0.11115013E+03</pdfrwt>
<totfact> 0.81829034E+03</totfact>
</mgrwt>
</event>
<event>
 8    1  0.6836165E-004  0.9838443E+02  0.7546771E-02  0.1284574E+00
          3   -1    0    0  501    0  0.00000000000E+00  0.00000000000E+00  0.10243694012E+02  0.10243694012E+02  0.00000000000E+00 0. -1.
         -3   -1    0    0    0  501 -0.00000000000E+00 -0.00000000000E+00 -0.93014037844E+03  0.93014037844E+03  0.00000000000E+00 0.  1.
         23    2    1    2    0    0 -0.34429062574E+02 -0.65697961613E+01 -0.45139074173E+03  0.46165939776E+03  0.90262258169E+02 0.  0.
         23    2    1    2    0    0  0.34429062574E+02  0.65697961613E+01 -0.46850594270E+03  0.47872467469E+03  0.91929175150E+02 0.  0.
          5    1    4    4  502    0  0.15102424612E+02  0.44344346275E+02 -0.34163165653E+03  0.34486052690E+03  0.47000000000E+01 0. -1.
         -5    1    3    3    0  503 -0.28266890476E+02 -0.43485108656E+02 -0.34213115406E+03  0.34607194100E+03  0.47000000000E+01 0.  1.
          5    1    3    3  503    0 -0.61621720977E+01  0.36915312495E+02 -0.10925958767E+03  0.11558745676E+03  0.47000000000E+01 0. -1.
         -5    1    4    4    0  502  0.19326637962E+02 -0.37774550114E+02 -0.12687428617E+03  0.13386414779E+03  0.47000000000E+01 0.  1.
<mgrwt>
<rscale>  0 0.97993170E+02</rscale>
<asrwt>0</asrwt>
<pdfrwt beam="1">  1        3 0.15759525E-02 0.98384429E+02</pdfrwt>
<pdfrwt beam="2">  1       -3 0.14309856E+00 0.98384429E+02</pdfrwt>
<totfact> 0.11563007E+03</totfact>
</mgrwt>
</event>
<event>
 8    1  0.6836165E-004  0.9373957E+02  0.7546771E-02  0.1294517E+00
         -2   -1    0    0    0  501 -0.00000000000E+00  0.00000000000E+00  0.35121989564E+02  0.35121989564E+02  0.00000000000E+00 0.  1.
          2   -1    0    0  501    0  0.00000000000E+00 -0.00000000000E+00 -0.55148289122E+03  0.55148289122E+03  0.00000000000E+00 0. -1.
         23    2    1    2    0    0  0.20258201215E+02 -0.61073197907E+00 -0.40083282140E+02  0.10119013292E+03  0.90675276583E+02 0.  0.
         23    2    1    2    0    0 -0.20258201215E+02  0.61073197907E+00 -0.47627761951E+03  0.48541474786E+03  0.91522340884E+02 0.  0.
          5    1    3    3  502    0  0.11187278995E+02  0.43179466790E+02 -0.70689757637E+01  0.45405748335E+02  0.47000000000E+01 0. -1.
         -5    1    3    3    0  502  0.90709222195E+01 -0.43790198769E+02 -0.33014306377E+02  0.55784384586E+02  0.47000000000E+01 0.  1.
          5    1    4    4  503    0  0.30049470849E+02 -0.72278020894E+01 -0.80654380460E+02  0.86501045709E+02  0.47000000000E+01 0. -1.
         -5    1    4    4    0  503 -0.50307672064E+02  0.78385340685E+01 -0.39562323905E+03  0.39891370215E+03  0.47000000000E+01 0.  1.
<mgrwt>
<rscale>  0 0.93532169E+02</rscale>
<asrwt>0</asrwt>
<pdfrwt beam="1">  1        2 0.84843525E-01 0.93739568E+02</pdfrwt>
<pdfrwt beam="2">  1       -2 0.54033828E-02 0.93739568E+02</pdfrwt>
<totfact> 0.90061436E+03</totfact>
</mgrwt>
</event>
<event>
 8    1  0.6836165E-004  0.9358914E+02  0.7546771E-02  0.1295402E+00
         -1   -1    0    0    0  501 -0.00000000000E+00  0.00000000000E+00  0.13192136996E+02  0.13192136996E+02  0.00000000000E+00 0.  1.
          1   -1    0    0  501    0  0.00000000000E+00 -0.00000000000E+00 -0.81609184371E+03  0.81609184371E+03  0.00000000000E+00 0. -1.
         23    2    1    2    0    0  0.17745538097E+02 -0.87518863869E+01 -0.58457937088E+03  0.59174936056E+03  0.89681465321E+02 0.  0.
         23    2    1    2    0    0 -0.17745538097E+02  0.87518863869E+01 -0.21832033584E+03  0.23753462015E+03  0.91473641522E+02 0.  0.
          5    1    4    4  502    0  0.15773983762E+02 -0.20829050824E+02 -0.17621759662E+02  0.31863526728E+02  0.47000000000E+01 0. -1.
         -5    1    3    3    0  503 -0.27303158029E+02 -0.30702755978E+02 -0.24685884787E+03  0.25029882627E+03  0.47000000000E+01 0.  1.
          5    1    3    3  503    0  0.45048696126E+02  0.21950869591E+02 -0.33772052302E+03  0.34145053429E+03  0.47000000000E+01 0. -1.
         -5    1    4    4    0  502 -0.33519521859E+02  0.29580937211E+02 -0.20069857617E+03  0.20567109342E+03  0.47000000000E+01 0.  1.
<mgrwt>
<rscale>  0 0.93148312E+02</rscale>
<asrwt>0</asrwt>
<pdfrwt beam="1">  1        1 0.12555258E+00 0.93589138E+02</pdfrwt>
<pdfrwt beam="2">  1       -1 0.20295597E-02 0.93589138E+02</pdfrwt>
<totfact> 0.13913391E+04</totfact>
</mgrwt>
</event>
<event>
 8    1  0.6836165E-004  0.1146879E+03  0.7546771E-02  0.1265117E+00
         -3   -1    0    0    0  501 -0.00000000000E+00  0.00000000000E+00  0.30582772888E+03  0.30582772888E+03  0.00000000000E+00 0.  1.
          3   -1    0    0  501    0  0.00000000000E+00 -0.00000000000E+00 -0.69190287924E+02  0.69190287924E+02  0.00000000000E+00 0. -1.
         23    2    1    2    0    0 -0.28367928510E+02  0.61894084813E+02 -0.22530383501E+02  0.91607921460E+02  0.56998034972E+02 0.  0.
         23    2    1    2    0    0  0.28367928510E+02 -0.61894084813E+02  0.25916782446E+03  0.28341009535E+03  0.92291407003E+02 0.  0.
          5    1    4    4  502    0  0.61083810885E+02 -0.43346718901E+02  0.19418077647E+03  0.20817885085E+03  0.47000000000E+01 0. -1.
         -5    1    4    4    0  502 -0.32715882375E+02 -0.18547365912E+02  0.64987047996E+02  0.75231244500E+02  0.47000000000E+01 0.  1.
          5    1    3    3  503    0 -0.32617759417E+02  0.16037750433E+02 -0.26379154540E+02  0.45156145347E+02  0.47000000000E+01 0. -1.
         -5    1    3    3    0  503  0.42498309070E+01  0.45856334380E+02  0.38487710390E+01  0.46451776113E+02  0.47000000000E+01 0. -1.
<mgrwt>
<rscale>  0 0.10758069E+03</rscale>
<asrwt>0</asrwt>
<pdfrwt beam="1">  1        3 0.10644660E-01 0.11468793E+03</pdfrwt>
<pdfrwt beam="2">  1       -3 0.47050419E-01 0.11468793E+03</pdfrwt>
<totfact> 0.67589642E+02</totfact>
</mgrwt>
</event>
<event>
 8    1  0.6836165E-004  0.1012378E+03  0.7546771E-02  0.1280773E+00
          1   -1    0    0  501    0  0.00000000000E+00  0.00000000000E+00  0.11714152600E+04  0.11714152600E+04  0.00000000000E+00 0. -1.
         -1   -1    0    0    0  501 -0.00000000000E+00 -0.00000000000E+00 -0.10801326446E+02  0.10801326446E+02  0.00000000000E+00 0.  1.
         23    2    1    2    0    0  0.17838968369E+02 -0.39380367657E+02  0.87981356060E+03  0.88561899281E+03  0.91542650442E+02 0.  0.
         23    2    1    2    0    0 -0.17838968369E+02  0.39380367657E+02  0.28080037298E+03  0.29659759367E+03  0.85160090156E+02 0.  0.
          5    1    3    3  502    0 -0.36687450083E+02 -0.11561546366E+02  0.27934885831E+03  0.28202395817E+03  0.47000000000E+01 0. -1.
         -5    1    4    4    0  503  0.30956255415E+02  0.14982829183E+02  0.62059396953E+02  0.71107198439E+02  0.47000000000E+01 0.  1.
          5    1    4    4  503    0 -0.48795223784E+02  0.24397538474E+02  0.21874097603E+03  0.22549039523E+03  0.47000000000E+01 0. -1.
         -5    1    3    3    0  502  0.54526418452E+02 -0.27818821291E+02  0.60046470230E+03  0.60359503463E+03  0.47000000000E+01 0.  1.
<mgrwt>
<rscale>  0 0.99773251E+02</rscale>
<asrwt>0</asrwt>
<pdfrwt beam="1">  1        1 0.18021763E+00 0.10123783E+03</pdfrwt>
<pdfrwt beam="2">  1       -1 0.16617435E-02 0.10123783E+03</pdfrwt>
<totfact> 0.10251556E+04</totfact>
</mgrwt>
</event>
<event>
 8    1  0.6836165E-004  0.1263515E+03  0.7546771E-02  0.1249866E+00
          1   -1    0    0  501    0  0.00000000000E+00  0.00000000000E+00  0.24574429359E+02  0.24574429359E+02  0.00000000000E+00 0. -1.
         -1   -1    0    0    0  501 -0.00000000000E+00 -0.00000000000E+00 -0.64720241215E+03  0.64720241215E+03  0.00000000000E+00 0.  1.
         23    2    1    2    0    0 -0.16598018733E+02  0.59725286878E+00 -0.10115151604E+03  0.13521146547E+03  0.88174033943E+02 0.  0.
         23    2    1    2    0    0  0.16598018733E+02 -0.59725286878E+00 -0.52147646675E+03  0.53656537604E+03  0.12525512543E+03 0.  0.
          5    1    3    3  502    0 -0.29512227936E+01  0.21163300670E+02 -0.10716567846E+03  0.10937626640E+03  0.47000000000E+01 0.  1.
         -5    1    4    4    0  503  0.50517025331E+02  0.44977854038E+02 -0.32440197764E+03  0.33141169306E+03  0.47000000000E+01 0.  1.
          5    1    4    4  503    0 -0.33919006599E+02 -0.45575106906E+02 -0.19707448911E+03  0.20515368297E+03  0.47000000000E+01 0.  1.
         -5    1    3    3    0  502 -0.13646795939E+02 -0.20566047801E+02  0.60141624234E+01  0.25835199074E+02  0.47000000000E+01 0. -1.
<mgrwt>
<rscale>  0 0.11598804E+03</rscale>
<asrwt>0</asrwt>
<pdfrwt beam="1">  1        1 0.37806814E-02 0.12635148E+03</pdfrwt>
<pdfrwt beam="2">  1       -1 0.99569604E-01 0.12635148E+03</pdfrwt>
<totfact> 0.24136219E+03</totfact>
</mgrwt>
</event>
<event>
 8    1  0.6836165E-004  0.1051154E+03  0.7546771E-02  0.1270241E+00
         -1   -1    0    0    0  501 -0.00000000000E+00  0.00000000000E+00  0.64927501269E+02  0.64927501269E+02  0.00000000000E+00 0.  1.
          1   -1    0    0  501    0  0.00000000000E+00 -0.00000000000E+00 -0.25496552765E+03  0.25496552765E+03  0.00000000000E+00 0. -1.
         23    2    1    2    0    0  0.58340679719E+01  0.49549296871E+02 -0.18808509380E+03  0.21546517236E+03  0.92520639980E+02 0.  0.
         23    2    1    2    0    0 -0.58340679719E+01 -0.49549296871E+02 -0.19529325776E+01  0.10442785655E+03  0.91718014092E+02 0.  0.
          5    1    3    3  502    0  0.42450608494E+02  0.29801258375E+02 -0.15030582899E+03  0.15907262929E+03  0.47000000000E+01 0. -1.
         -5    1    4    4    0  503 -0.38085663613E+02 -0.34001508770E+02 -0.29370827639E+02  0.59087696585E+02  0.47000000000E+01 0.  1.
          5    1    4    4  503    0  0.32251595641E+02 -0.15547788101E+02  0.27417895062E+02  0.45340159967E+02  0.47000000000E+01 0. -1.
         -5    1    3    3    0  502 -0.36616540522E+02  0.19748038495E+02 -0.37779264811E+02  0.56392543070E+02  0.47000000000E+01 0.  1.
<mgrwt>
<rscale>  0 0.10493847E+03</rscale>
<asrwt>0</asrwt>
<pdfrwt beam="1">  1        1 0.39225465E-01 0.10511536E+03</pdfrwt>
<pdfrwt beam="2">  1       -1 0.99888465E-02 0.10511536E+03</pdfrwt>
<totfact> 0.61620210E+03</totfact>
</mgrwt>
</event>
<event>
 8    1  0.6836165E-004  0.1289795E+03  0.7546771E-02  0.1229180E+00
          1   -1    0    0  501    0  0.00000000000E+00  0.00000000000E+00  0.24545620310E+02  0.24545620310E+02  0.00000000000E+00 0. -1.
         -1   -1    0    0    0  501 -0.00000000000E+00 -0.00000000000E+00 -0.69956076042E+03  0.69956076042E+03  0.00000000000E+00 0.  1.
         23    2    1    2    0    0  0.87874423282E+02 -0.18775983012E+02 -0.40478066631E+03  0.42466959137E+03  0.91773755534E+02 0.  0.
         23    2    1    2    0    0 -0.87874423282E+02  0.18775983012E+02 -0.27023447379E+03  0.29943678936E+03  0.92527121381E+02 0.  0.
          5    1    3    3  502    0  0.76985792732E+02  0.15653102530E+02 -0.17318623786E+03  0.19022984751E+03  0.47000000000E+01 0. -1.
         -5    1    4    4    0  503 -0.47457773202E+02 -0.25944636852E+02 -0.19764491557E+03  0.20496577048E+03  0.47000000000E+01 0.  1.
          5    1    4    4  503    0 -0.40416650080E+02  0.44720619865E+02 -0.72589558221E+02  0.94471018876E+02  0.47000000000E+01 0. -1.
         -5    1    3    3    0  502  0.10888630551E+02 -0.34429085542E+02 -0.23159442846E+03  0.23443974386E+03  0.47000000000E+01 0.  1.
<mgrwt>
<rscale>  0 0.12884448E+03</rscale>
<asrwt>0</asrwt>
<pdfrwt beam="1">  1        1 0.37762494E-02 0.12897953E+03</pdfrwt>
<pdfrwt beam="2">  1       -1 0.10762473E+00 0.12897953E+03</pdfrwt>
<totfact> 0.20355811E+03</totfact>
</mgrwt>
</event>
<event>
 8    1  0.6836165E-004  0.1341456E+03  0.7546771E-02  0.1222533E+00
         -1   -1    0    0    0  501 -0.00000000000E+00  0.00000000000E+00  0.87690705413E+02  0.87690705413E+02  0.00000000000E+00 0.  1.
          1   -1    0    0  501    0  0.00000000000E+00 -0.00000000000E+00 -0.22615540013E+03  0.22615540013E+03  0.00000000000E+00 0. -1.
         23    2    1    2    0    0 -0.92916625197E+02  0.17299477268E+02 -0.17151156886E+02  0.13523754530E+03  0.95195904975E+02 0.  0.
         23    2    1    2    0    0  0.92916625197E+02 -0.17299477268E+02 -0.12131353783E+03  0.17860856025E+03  0.90836513474E+02 0.  0.
          5    1    3    3  502    0 -0.27628486138E+02  0.52527778935E+02 -0.11926975731E+02  0.60719383694E+02  0.47000000000E+01 0. -1.
         -5    1    3    3    0  502 -0.65288139059E+02 -0.35228301667E+02 -0.52241811552E+01  0.74518161604E+02  0.47000000000E+01 0.  1.
          5    1    4    4  503    0  0.86830288132E+02  0.27951137902E+01 -0.12914049719E+03  0.15571342143E+03  0.47000000000E+01 0. -1.
         -5    1    4    4    0  503  0.60863370649E+01 -0.20094591058E+02  0.78269593589E+01  0.22895138818E+02  0.47000000000E+01 0.  1.
<mgrwt>
<rscale>  0 0.13337453E+03</rscale>
<asrwt>0</asrwt>
<pdfrwt beam="1">  1        1 0.34793139E-01 0.13414556E+03</pdfrwt>
<pdfrwt beam="2">  1       -1 0.13490878E-01 0.13414556E+03</pdfrwt>
<totfact> 0.45749164E+03</totfact>
</mgrwt>
</event>
<event>
 8    1  0.6836165E-004  0.1385387E+03  0.7546771E-02  0.1215484E+00
         -1   -1    0    0    0  501 -0.00000000000E+00  0.00000000000E+00  0.24785986506E+03  0.24785986506E+03  0.00000000000E+00 0.  1.
          1   -1    0    0  501    0  0.00000000000E+00 -0.00000000000E+00 -0.22339114160E+03  0.22339114160E+03  0.00000000000E+00 0. -1.
         23    2    1    2    0    0 -0.65061578697E+01  0.10150108288E+03  0.20287204382E+03  0.24537332468E+03  0.93307032886E+02 0.  0.
         23    2    1    2    0    0  0.65061578697E+01 -0.10150108288E+03 -0.17840332037E+03  0.22587768198E+03  0.94064778639E+02 0.  0.
          5    1    3    3  502    0  0.19853556933E+02  0.57709219656E+02  0.17820676103E+03  0.18842573453E+03  0.47000000000E+01 0. -1.
         -5    1    3    3    0  502 -0.26359714802E+02  0.43791863223E+02  0.24665282789E+02  0.56947590152E+02  0.47000000000E+01 0.  1.
          5    1    4    4  503    0 -0.36608594359E+02 -0.49890467877E+02 -0.12613325201E+03  0.14057359364E+03  0.47000000000E+01 0. -1.
         -5    1    4    4    0  503  0.43114752229E+02 -0.51610615002E+02 -0.52270068355E+02  0.85304088334E+02  0.47000000000E+01 0.  1.
<mgrwt>
<rscale>  0 0.13841022E+03</rscale>
<asrwt>0</asrwt>
<pdfrwt beam="1">  1        1 0.34367868E-01 0.13853874E+03</pdfrwt>
<pdfrwt beam="2">  1       -1 0.38132287E-01 0.13853874E+03</pdfrwt>
<totfact> 0.85245954E+02</totfact>
</mgrwt>
</event>
<event>
 8    1  0.6836165E-004  0.9950994E+02  0.7546771E-02  0.1284945E+00
          3   -1    0    0  501    0  0.00000000000E+00  0.00000000000E+00  0.22768852709E+03  0.22768852709E+03  0.00000000000E+00 0. -1.
         -3   -1    0    0    0  501 -0.00000000000E+00 -0.00000000000E+00 -0.44395519615E+02  0.44395519615E+02  0.00000000000E+00 0.  1.
         23    2    1    2    0    0  0.30883674123E+02 -0.20315970028E+02  0.12821342730E+03  0.15834756162E+03  0.85256831773E+02 0.  0.
         23    2    1    2    0    0 -0.30883674123E+02  0.20315970028E+02  0.55079580177E+02  0.11373648509E+03  0.92388786781E+02 0.  0.
          5    1    3    3  502    0 -0.25861178077E+01 -0.48423497103E+02  0.73154235445E+02  0.87892862285E+02  0.47000000000E+01 0. -1.
         -5    1    4    4    0  503  0.24299769436E+02  0.34382674097E+02  0.22952676366E+02  0.48182594628E+02  0.47000000000E+01 0.  1.
          5    1    4    4  503    0 -0.55183443559E+02 -0.14066704069E+02  0.32126903811E+02  0.65553890463E+02  0.47000000000E+01 0. -1.
         -5    1    3    3    0  502  0.33469791931E+02  0.28107527074E+02  0.55059191855E+02  0.70454699332E+02  0.47000000000E+01 0.  1.
<mgrwt>
<rscale>  0 0.97821500E+02</rscale>
<asrwt>0</asrwt>
<pdfrwt beam="1">  1        3 0.35029003E-01 0.99509939E+02</pdfrwt>
<pdfrwt beam="2">  1       -3 0.68300801E-02 0.99509939E+02</pdfrwt>
<totfact> 0.23888999E+03</totfact>
</mgrwt>
</event>
<event>
 8    1  0.6836165E-004  0.9305004E+02  0.7546771E-02  0.1296347E+00
         -2   -1    0    0    0  501 -0.00000000000E+00  0.00000000000E+00  0.31475579378E+02  0.31475579378E+02  0.00000000000E+00 0.  1.
          2   -1    0    0  501    0  0.00000000000E+00 -0.00000000000E+00 -0.40515001452E+03  0.40515001452E+03  0.00000000000E+00 0. -1.
         23    2    1    2    0    0 -0.11895138191E+02  0.75588224422E+01 -0.31141174906E+03  0.32466599199E+03  0.90730914208E+02 0.  0.
         23    2    1    2    0    0  0.11895138191E+02 -0.75588224422E+01 -0.62262686079E+02  0.11195960190E+03  0.91976520219E+02 0.  0.
          5    1    3    3  502    0  0.32993435040E+02 -0.11136518440E+02 -0.19928424666E+03  0.20235832022E+03  0.47000000000E+01 0. -1.
         -5    1    3    3    0  502 -0.44888573231E+02  0.18695340883E+02 -0.11212750240E+03  0.12230767176E+03  0.47000000000E+01 0.  1.
          5    1    4    4  503    0  0.41345593375E+02 -0.25963678852E+02 -0.11673528128E+02  0.50417576002E+02  0.47000000000E+01 0. -1.
         -5    1    4    4    0  503 -0.29450455184E+02  0.18404856409E+02 -0.50589157951E+02  0.61542025902E+02  0.47000000000E+01 0.  1.
<mgrwt>
<rscale>  0 0.92740743E+02</rscale>
<asrwt>0</asrwt>
<pdfrwt beam="1">  1        2 0.62330771E-01 0.93050042E+02</pdfrwt>
<pdfrwt beam="2">  1       -2 0.48423969E-02 0.93050042E+02</pdfrwt>
<totfact> 0.14758489E+04</totfact>
</mgrwt>
</event>
<event>
 8    1  0.6836165E-004  0.9708354E+02  0.7546771E-02  0.1287046E+00
         -3   -1    0    0    0  501 -0.00000000000E+00  0.00000000000E+00  0.13096110136E+02  0.13096110136E+02  0.00000000000E+00 0.  1.
          3   -1    0    0  501    0  0.00000000000E+00 -0.00000000000E+00 -0.72132217742E+03  0.72132217742E+03  0.00000000000E+00 0. -1.
         23    2    1    2    0    0 -0.14225257830E+02 -0.38102151570E+02 -0.31314265412E+03  0.32758156644E+03  0.87162084247E+02 0.  0.
         23    2    1    2    0    0  0.14225257830E+02  0.38102151570E+02 -0.39508341316E+03  0.40683672111E+03  0.88153742821E+02 0.  0.
          5    1    4    4  502    0  0.47605995197E+02  0.30674294889E+02 -0.30730290385E+03  0.31251305230E+03  0.47000000000E+01 0. -1.
         -5    1    4    4    0  502 -0.33380737367E+02  0.74278566815E+01 -0.87780509312E+02  0.94323668807E+02  0.47000000000E+01 0.  1.
          5    1    3    3  503    0  0.29889324373E+02 -0.39865433456E+02 -0.13465990597E+03  0.14365933583E+03  0.47000000000E+01 0. -1.
         -5    1    3    3    0  503 -0.44114582203E+02  0.17632818856E+01 -0.17848274815E+03  0.18392223061E+03  0.47000000000E+01 0.  1.
<mgrwt>
<rscale>  0 0.96857870E+02</rscale>
<asrwt>0</asrwt>
<pdfrwt beam="1">  1        3 0.11097266E+00 0.97083543E+02</pdfrwt>
<pdfrwt beam="2">  1       -3 0.20147858E-02 0.97083543E+02</pdfrwt>
<totfact> 0.14570014E+03</totfact>
</mgrwt>
</event>
<event>
 8    1  0.6836165E-004  0.9410581E+02  0.7546771E-02  0.1296367E+00
          3   -1    0    0  501    0  0.00000000000E+00  0.00000000000E+00  0.15072250930E+03  0.15072250930E+03  0.00000000000E+00 0. -1.
         -3   -1    0    0    0  501 -0.00000000000E+00 -0.00000000000E+00 -0.63376682687E+02  0.63376682687E+02  0.00000000000E+00 0.  1.
         23    2    1    2    0    0 -0.37165434706E+00  0.27522237928E+02  0.69469822341E+01  0.94361875398E+02  0.89990506493E+02 0.  0.
         23    2    1    2    0    0  0.37165434706E+00 -0.27522237928E+02  0.80398844383E+02  0.11973731659E+03  0.84353062181E+02 0.  0.
          5    1    4    4  502    0 -0.34860886760E+02  0.29566033817E+01  0.12890254087E+02  0.37580201965E+02  0.47000000000E+01 0. -1.
         -5    1    4    4    0  502  0.35232541107E+02 -0.30478841309E+02  0.67508590296E+02  0.82157114629E+02  0.47000000000E+01 0.  1.
          5    1    3    3  503    0  0.26502795557E+02  0.24825560728E+02  0.38113827275E+02  0.52853197324E+02  0.47000000000E+01 0. -1.
         -5    1    3    3    0  503 -0.26874449904E+02  0.26966771998E+01 -0.31166845041E+02  0.41508678073E+02  0.47000000000E+01 0.  1.
<mgrwt>
<rscale>  0 0.92732123E+02</rscale>
<asrwt>0</asrwt>
<pdfrwt beam="1">  1        3 0.23188078E-01 0.94105807E+02</pdfrwt>
<pdfrwt beam="2">  1       -3 0.97502589E-02 0.94105807E+02</pdfrwt>
<totfact> 0.28189775E+03</totfact>
</mgrwt>
</event>
<event>
 8    1  0.6836165E-004  0.9988981E+02  0.7546771E-02  0.1281878E+00
          3   -1    0    0  501    0  0.00000000000E+00  0.00000000000E+00  0.19960763843E+03  0.19960763843E+03  0.00000000000E+00 0. -1.
         -3   -1    0    0    0  501 -0.00000000000E+00 -0.00000000000E+00 -0.64102714792E+02  0.64102714792E+02  0.00000000000E+00 0.  1.
         23    2    1    2    0    0  0.16661957382E+02 -0.32200946587E+02  0.13297792990E+03  0.16631627898E+03  0.93077672027E+02 0.  0.
         23    2    1    2    0    0 -0.16661957382E+02  0.32200946587E+02  0.25269937390E+01  0.97394074237E+02  0.90358719636E+02 0.  0.
          5    1    3    3  502    0  0.52242688623E+02 -0.22643208465E+01  0.79764835522E+02  0.95493165458E+02  0.47000000000E+01 0. -1.
         -5    1    3    3    0  502 -0.35580731240E+02 -0.29936625741E+02  0.53213094378E+02  0.70823113527E+02  0.47000000000E+01 0.  1.
          5    1    4    4  503    0  0.35326285162E+02  0.74232196906E+01  0.13031322325E+02  0.38664660550E+02  0.47000000000E+01 0. -1.
         -5    1    4    4    0  503 -0.51988242544E+02  0.24777726897E+02 -0.10504328586E+02  0.58729413687E+02  0.47000000000E+01 0.  1.
<mgrwt>
<rscale>  0 0.99251591E+02</rscale>
<asrwt>0</asrwt>
<pdfrwt beam="1">  1        3 0.30708867E-01 0.99889813E+02</pdfrwt>
<pdfrwt beam="2">  1       -3 0.98619562E-02 0.99889813E+02</pdfrwt>
<totfact> 0.16850339E+03</totfact>
</mgrwt>
</event>
<event>
 8    1  0.1461351E-003  0.9398009E+02  0.7546771E-02  0.1296916E+00
          1   -1    0    0  501    0  0.00000000000E+00  0.00000000000E+00  0.35148636566E+03  0.35148636566E+03  0.00000000000E+00 0. -1.
         -1   -1    0    0    0  501 -0.00000000000E+00 -0.00000000000E+00 -0.19133720522E+03  0.19133720522E+03  0.00000000000E+00 0.  1.
         23    2    1    2    0    0 -0.78391138118E+01  0.12594782965E+02  0.33449366679E+03  0.34744534921E+03  0.92801817323E+02 0.  0.
         23    2    1    2    0    0  0.78391138118E+01 -0.12594782965E+02 -0.17434450636E+03  0.19537822168E+03  0.86928489833E+02 0.  0.
          5    1    4    4  502    0  0.17374866954E+02  0.18448185199E+02 -0.97689667147E+01  0.27563458591E+02  0.47000000000E+01 0. -1.
         -5    1    3    3    0  503 -0.43868837313E+02  0.22651549081E+02  0.25073503221E+03  0.25559286755E+03  0.47000000000E+01 0. -1.
          5    1    3    3  503    0  0.36029723501E+02 -0.10056766116E+02  0.83758634580E+02  0.91852481659E+02  0.47000000000E+01 0.  1.
         -5    1    4    4    0  502 -0.95357531424E+01 -0.31042968164E+02 -0.16457553964E+03  0.16781476309E+03  0.47000000000E+01 0.  1.
<mgrwt>
<rscale>  0 0.92496631E+02</rscale>
<asrwt>0</asrwt>
<pdfrwt beam="1">  1        1 0.54074825E-01 0.93980091E+02</pdfrwt>
<pdfrwt beam="2">  1       -1 0.29436493E-01 0.93980091E+02</pdfrwt>
<totfact> 0.75315125E+02</totfact>
</mgrwt>
</event>
<event>
 8    1  0.6836165E-004  0.9946686E+02  0.7546771E-02  0.1284852E+00
          1   -1    0    0  501    0  0.00000000000E+00  0.00000000000E+00  0.32192546139E+03  0.32192546139E+03  0.00000000000E+00 0. -1.
         -1   -1    0    0    0  501 -0.00000000000E+00 -0.00000000000E+00 -0.28850484716E+02  0.28850484716E+02  0.00000000000E+00 0.  1.
         23    2    1    2    0    0  0.27777609213E+02 -0.20659340089E+02  0.14663629835E+03  0.17718876843E+03  0.93248333795E+02 0.  0.
         23    2    1    2    0    0 -0.27777609213E+02  0.20659340089E+02  0.14643867832E+03  0.17358717768E+03  0.86543733681E+02 0.  0.
          5    1    3    3  502    0  0.46150825730E+02 -0.37063953012E+01  0.14432965902E+03  0.15164688112E+03  0.47000000000E+01 0. -1.
         -5    1    3    3    0  502 -0.18373216517E+02 -0.16952944788E+02  0.23066393363E+01  0.25541887307E+02  0.47000000000E+01 0.  1.
          5    1    4    4  503    0 -0.51708638720E+01 -0.26155310008E+02  0.12466595210E+02  0.29805101424E+02  0.47000000000E+01 0. -1.
         -5    1    4    4    0  503 -0.22606745341E+02  0.46814650097E+02  0.13397208311E+03  0.14378207626E+03  0.47000000000E+01 0.  1.
<mgrwt>
<rscale>  0 0.97864495E+02</rscale>
<asrwt>0</asrwt>
<pdfrwt beam="1">  1        1 0.49526992E-01 0.99466857E+02</pdfrwt>
<pdfrwt beam="2">  1       -1 0.44385363E-02 0.99466857E+02</pdfrwt>
<totfact> 0.15384333E+04</totfact>
</mgrwt>
</event>
<event>
 8    1  0.6836165E-004  0.1826106E+03  0.7546771E-02  0.1165381E+00
         -3   -1    0    0    0  501 -0.00000000000E+00  0.00000000000E+00  0.87443269259E+03  0.87443269259E+03  0.00000000000E+00 0.  1.
          3   -1    0    0  501    0  0.00000000000E+00 -0.00000000000E+00 -0.64747654933E+02  0.64747654933E+02  0.00000000000E+00 0. -1.
         23    2    1    2    0    0 -0.79112996238E+02  0.13677338703E+03  0.70608058283E+03  0.72922672602E+03  0.90862549651E+02 0.  0.
         23    2    1    2    0    0  0.79112996238E+02 -0.13677338703E+03  0.10360445483E+03  0.20995362150E+03  0.91546788850E+02 0.  0.
          5    1    4    4  502    0  0.36357346590E+02 -0.28761355218E+02 -0.97197917708E+01  0.47598703314E+02  0.47000000000E+01 0. -1.
         -5    1    4    4    0  502  0.42755649648E+02 -0.10801203181E+03  0.11332424660E+03  0.16235491819E+03  0.47000000000E+01 0.  1.
          5    1    3    3  503    0 -0.98360453455E+02  0.11728562467E+03  0.56208503264E+03  0.58257391847E+03  0.47000000000E+01 0. -1.
         -5    1    3    3    0  503  0.19247457217E+02  0.19487762354E+02  0.14399555019E+03  0.14665280756E+03  0.47000000000E+01 0.  1.
<mgrwt>
<rscale>  0 0.18252505E+03</rscale>
<asrwt>0</asrwt>
<pdfrwt beam="1">  1        3 0.99611784E-02 0.18261062E+03</pdfrwt>
<pdfrwt beam="2">  1       -3 0.13452810E+00 0.18261062E+03</pdfrwt>
<totfact> 0.80765334E+01</totfact>
</mgrwt>
</event>
<event>
 8    1  0.6836165E-004  0.1038412E+03  0.7546771E-02  0.1273307E+00
          1   -1    0    0  501    0  0.00000000000E+00  0.00000000000E+00  0.29604372762E+02  0.29604372762E+02  0.00000000000E+00 0. -1.
         -1   -1    0    0    0  501 -0.00000000000E+00 -0.00000000000E+00 -0.36506304719E+03  0.36506304719E+03  0.00000000000E+00 0.  1.
         23    2    1    2    0    0 -0.44932843368E+02  0.25513799210E+02 -0.13906409440E+03  0.17251020615E+03  0.88039959746E+02 0.  0.
         23    2    1    2    0    0  0.44932843368E+02 -0.25513799210E+02 -0.19639458003E+03  0.22215721380E+03  0.90072649656E+02 0.  0.
          5    1    3    3  502    0 -0.61715180018E+02 -0.15219870937E+01 -0.12023244792E+03  0.13523687153E+03  0.47000000000E+01 0. -1.
         -5    1    4    4    0  503  0.25502652320E+02  0.31728508745E+02 -0.57522706623E+02  0.70626024381E+02  0.47000000000E+01 0.  1.
          5    1    4    4  503    0  0.19430191048E+02 -0.57242307955E+02 -0.13887187340E+03  0.15153118942E+03  0.47000000000E+01 0. -1.
         -5    1    3    3    0  502  0.16782336650E+02  0.27035786304E+02 -0.18831646484E+02  0.37273334621E+02  0.47000000000E+01 0.  1.
<mgrwt>
<rscale>  0 0.10339885E+03</rscale>
<asrwt>0</asrwt>
<pdfrwt beam="1">  1        1 0.45545188E-02 0.10384121E+03</pdfrwt>
<pdfrwt beam="2">  1       -1 0.56163547E-01 0.10384121E+03</pdfrwt>
<totfact> 0.58281839E+03</totfact>
</mgrwt>
</event>
<event>
 8    1  0.6836165E-004  0.1372027E+03  0.7546771E-02  0.1217565E+00
          1   -1    0    0  501    0  0.00000000000E+00  0.00000000000E+00  0.72621522761E+03  0.72621522761E+03  0.00000000000E+00 0. -1.
         -1   -1    0    0    0  501 -0.00000000000E+00 -0.00000000000E+00 -0.28257562089E+02  0.28257562089E+02  0.00000000000E+00 0.  1.
         23    2    1    2    0    0 -0.42450087088E+02 -0.93414020046E+02  0.23390434358E+03  0.27056158021E+03  0.89242017588E+02 0.  0.
         23    2    1    2    0    0  0.42450087088E+02  0.93414020046E+02  0.46405332194E+03  0.48391120949E+03  0.91084488429E+02 0.  0.
          5    1    3    3  502    0 -0.31041066557E+02  0.72930567992E+01  0.37114227528E+02  0.49155796967E+02  0.47000000000E+01 0. -1.
         -5    1    4    4    0  503  0.32310596527E+02  0.19581639841E+01  0.50130084698E+02  0.59857534580E+02  0.47000000000E+01 0.  1.
          5    1    4    4  503    0  0.10139490561E+02  0.91455856061E+02  0.41392323724E+03  0.42405367491E+03  0.47000000000E+01 0. -1.
         -5    1    3    3    0  502 -0.11409020532E+02 -0.10070707684E+03  0.19679011605E+03  0.22140578324E+03  0.47000000000E+01 0.  1.
<mgrwt>
<rscale>  0 0.13689761E+03</rscale>
<asrwt>0</asrwt>
<pdfrwt beam="1">  1        1 0.11172541E+00 0.13720267E+03</pdfrwt>
<pdfrwt beam="2">  1       -1 0.43473178E-02 0.13720267E+03</pdfrwt>
<totfact> 0.56145732E+03</totfact>
</mgrwt>
</event>
<event>
 8    1  0.6836165E-004  0.1257677E+03  0.7546771E-02  0.1235945E+00
         -1   -1    0    0    0  501 -0.00000000000E+00  0.00000000000E+00  0.96058431739E+03  0.96058431739E+03  0.00000000000E+00 0.  1.
          1   -1    0    0  501    0  0.00000000000E+00 -0.00000000000E+00 -0.15925782098E+02  0.15925782098E+02  0.00000000000E+00 0. -1.
         23    2    1    2    0    0  0.62293972121E+01 -0.76842241973E+02  0.50747546488E+03  0.52159630325E+03  0.92670494619E+02 0.  0.
         23    2    1    2    0    0 -0.62293972121E+01  0.76842241973E+02  0.43718307042E+03  0.45491379624E+03  0.99367949601E+02 0.  0.
          5    1    3    3  502    0 -0.21923536579E+02 -0.85237191179E+02  0.32627682884E+03  0.33797141781E+03  0.47000000000E+01 0. -1.
         -5    1    3    3    0  502  0.28152933791E+02  0.83949492057E+01  0.18119863604E+03  0.18362488545E+03  0.47000000000E+01 0.  1.
          5    1    4    4  503    0 -0.45371819920E+02  0.14261795030E+02  0.11880756292E+03  0.12805986041E+03  0.47000000000E+01 0. -1.
         -5    1    4    4    0  503  0.39142422708E+02  0.62580446943E+02  0.31837550749E+03  0.32685393583E+03  0.47000000000E+01 0.  1.
<mgrwt>
<rscale>  0 0.12444149E+03</rscale>
<asrwt>0</asrwt>
<pdfrwt beam="1">  1        1 0.24501211E-02 0.12576774E+03</pdfrwt>
<pdfrwt beam="2">  1       -1 0.14778216E+00 0.12576774E+03</pdfrwt>
<totfact> 0.17276501E+03</totfact>
</mgrwt>
</event>
<event>
 8    1  0.6836165E-004  0.9553712E+02  0.7546771E-02  0.1290771E+00
          1   -1    0    0  501    0  0.00000000000E+00  0.00000000000E+00  0.59034202949E+02  0.59034202949E+02  0.00000000000E+00 0. -1.
         -1   -1    0    0    0  501 -0.00000000000E+00 -0.00000000000E+00 -0.22752519108E+03  0.22752519108E+03  0.00000000000E+00 0.  1.
         23    2    1    2    0    0  0.21120057998E+02 -0.20285594717E+02 -0.14503736544E+01  0.94127825091E+02  0.89444852673E+02 0.  0.
         23    2    1    2    0    0 -0.21120057998E+02  0.20285594717E+02 -0.16704061447E+03  0.19243156894E+03  0.90938328754E+02 0.  0.
          5    1    3    3  502    0  0.35397331298E+02  0.35191285987E+01  0.33609544173E+02  0.49163470063E+02  0.47000000000E+01 0. -1.
         -5    1    4    4    0  503 -0.48360182812E+02  0.29861390781E+01 -0.14530377712E+03  0.15324131934E+03  0.47000000000E+01 0.  1.
          5    1    4    4  503    0  0.27240124814E+02  0.17299455639E+02 -0.21736837358E+02  0.39190249599E+02  0.47000000000E+01 0. -1.
         -5    1    3    3    0  502 -0.14277273300E+02 -0.23804723316E+02 -0.35059917827E+02  0.44964355028E+02  0.47000000000E+01 0.  1.
<mgrwt>
<rscale>  0 0.95180007E+02</rscale>
<asrwt>0</asrwt>
<pdfrwt beam="1">  1        1 0.90821851E-02 0.95537123E+02</pdfrwt>
<pdfrwt beam="2">  1       -1 0.35003875E-01 0.95537123E+02</pdfrwt>
<totfact> 0.53060517E+03</totfact>
</mgrwt>
</event>
<event>
 8    1  0.6836165E-004  0.1134316E+03  0.7546771E-02  0.1254893E+00
         -3   -1    0    0    0  501 -0.00000000000E+00  0.00000000000E+00  0.52915701234E+02  0.52915701234E+02  0.00000000000E+00 0.  1.
          3   -1    0    0  501    0  0.00000000000E+00 -0.00000000000E+00 -0.28957740313E+03  0.28957740313E+03  0.00000000000E+00 0. -1.
         23    2    1    2    0    0  0.52987300527E+02 -0.38105549064E+02 -0.47319983731E+02  0.12177381314E+03  0.91268799821E+02 0.  0.
         23    2    1    2    0    0 -0.52987300527E+02  0.38105549064E+02 -0.18934171816E+03  0.22071929122E+03  0.92774093326E+02 0.  0.
          5    1    3    3  502    0  0.72468954439E+02 -0.32205926070E+02 -0.57951464167E+02  0.98333276314E+02  0.47000000000E+01 0. -1.
         -5    1    3    3    0  502 -0.19481653913E+02 -0.58996229935E+01  0.10631480436E+02  0.23440536830E+02  0.47000000000E+01 0.  1.
          5    1    4    4  503    0 -0.17708528476E+02  0.58316318609E+02 -0.15723873555E+03  0.16870238574E+03  0.47000000000E+01 0. -1.
         -5    1    4    4    0  503 -0.35278772050E+02 -0.20210769545E+02 -0.32102982614E+02  0.52016905480E+02  0.47000000000E+01 0.  1.
<mgrwt>
<rscale>  0 0.11312335E+03</rscale>
<asrwt>0</asrwt>
<pdfrwt beam="1">  1        3 0.44550370E-01 0.11343156E+03</pdfrwt>
<pdfrwt beam="2">  1       -3 0.81408771E-02 0.11343156E+03</pdfrwt>
<totfact> 0.11653335E+03</totfact>
</mgrwt>
</event>
<event>
 8    1  0.6836165E-004  0.9389905E+02  0.7546771E-02  0.1294348E+00
         -4   -1    0    0    0  501 -0.00000000000E+00  0.00000000000E+00  0.11548128858E+03  0.11548128858E+03  0.00000000000E+00 0.  1.
          4   -1    0    0  501    0  0.00000000000E+00 -0.00000000000E+00 -0.80167401988E+02  0.80167401988E+02  0.00000000000E+00 0. -1.
         23    2    1    2    0    0 -0.13985900541E+02  0.24883960556E+01  0.41401285734E+02  0.10155252697E+03  0.91635428432E+02 0.  0.
         23    2    1    2    0    0  0.13985900541E+02 -0.24883960556E+01 -0.60873991428E+01  0.94096163600E+02  0.92818285090E+02 0.  0.
          5    1    3    3  502    0  0.18961693384E+02 -0.32724024913E+02  0.36639999433E+02  0.52867638314E+02  0.47000000000E+01 0. -1.
         -5    1    3    3    0  502 -0.32947593924E+02  0.35212420968E+02  0.47612863003E+01  0.48684888652E+02  0.47000000000E+01 0.  1.
          5    1    4    4  503    0  0.12349904643E+02 -0.24631307850E+02 -0.42690918837E+02  0.51027698579E+02  0.47000000000E+01 0. -1.
         -5    1    4    4    0  503  0.16359958974E+01  0.22142911794E+02  0.36603519695E+02  0.43068465022E+02  0.47000000000E+01 0.  1.
<mgrwt>
<rscale>  0 0.93605408E+02</rscale>
<asrwt>0</asrwt>
<pdfrwt beam="1">  1        4 0.12333446E-01 0.93899050E+02</pdfrwt>
<pdfrwt beam="2">  1       -4 0.17766352E-01 0.93899050E+02</pdfrwt>
<totfact> 0.22192442E+03</totfact>
</mgrwt>
</event>
<event>
 8    1  0.6836165E-004  0.9747689E+02  0.7546771E-02  0.1286843E+00
         -1   -1    0    0    0  501 -0.00000000000E+00  0.00000000000E+00  0.20409348145E+02  0.20409348145E+02  0.00000000000E+00 0.  1.
          1   -1    0    0  501    0  0.00000000000E+00 -0.00000000000E+00 -0.48136318538E+03  0.48136318538E+03  0.00000000000E+00 0. -1.
         23    2    1    2    0    0  0.31869646943E+02 -0.13409829487E+01 -0.29084393599E+03  0.30674409273E+03  0.92110100937E+02 0.  0.
         23    2    1    2    0    0 -0.31869646943E+02  0.13409829487E+01 -0.17010990124E+03  0.19502844079E+03  0.89895726168E+02 0.  0.
          5    1    3    3  502    0  0.32411311152E+02  0.23250346487E+02 -0.47889791489E+02  0.62502750589E+02  0.47000000000E+01 0. -1.
         -5    1    3    3    0  502 -0.54166420884E+00 -0.24591329435E+02 -0.24295414450E+03  0.24424134215E+03  0.47000000000E+01 0.  1.
          5    1    4    4  503    0 -0.13271844451E+02  0.39781999690E+02 -0.12837363641E+03  0.13513189808E+03  0.47000000000E+01 0. -1.
         -5    1    4    4    0  503 -0.18597802492E+02 -0.38441016741E+02 -0.41736264831E+02  0.59896542702E+02  0.47000000000E+01 0.  1.
<mgrwt>
<rscale>  0 0.96950207E+02</rscale>
<asrwt>0</asrwt>
<pdfrwt beam="1">  1        1 0.74055877E-01 0.97476886E+02</pdfrwt>
<pdfrwt beam="2">  1       -1 0.31398996E-02 0.97476886E+02</pdfrwt>
<totfact> 0.15368353E+04</totfact>
</mgrwt>
</event>
<event>
 8    1  0.6836165E-004  0.9609133E+02  0.7546771E-02  0.1290431E+00
          1   -1    0    0  501    0  0.00000000000E+00  0.00000000000E+00  0.59407037508E+02  0.59407037508E+02  0.00000000000E+00 0. -1.
         -1   -1    0    0    0  501 -0.00000000000E+00 -0.00000000000E+00 -0.31132503023E+03  0.31132503023E+03  0.00000000000E+00 0.  1.
         23    2    1    2    0    0  0.19089982703E+02  0.91965305388E+01 -0.25816782636E+03  0.27443770129E+03  0.90644479749E+02 0.  0.
         23    2    1    2    0    0 -0.19089982703E+02 -0.91965305388E+01  0.62498336401E+01  0.96294366444E+02  0.93725882096E+02 0.  0.
          5    1    4    4  502    0  0.27075631474E+02 -0.26923889548E+02  0.21829432042E+02  0.44233468679E+02  0.47000000000E+01 0. -1.
         -5    1    4    4    0  502 -0.46165614177E+02  0.17727359009E+02 -0.15579598402E+02  0.52060897765E+02  0.47000000000E+01 0.  1.
          5    1    3    3  503    0  0.32541113604E+02 -0.28247344207E+02 -0.72277047040E+02  0.84278692789E+02  0.47000000000E+01 0. -1.
         -5    1    3    3    0  503 -0.13451130901E+02  0.37443874746E+02 -0.18589077932E+03  0.19015900850E+03  0.47000000000E+01 0.  1.
<mgrwt>
<rscale>  0 0.95331605E+02</rscale>
<asrwt>0</asrwt>
<pdfrwt beam="1">  1        1 0.91395442E-02 0.96091335E+02</pdfrwt>
<pdfrwt beam="2">  1       -1 0.47896158E-01 0.96091335E+02</pdfrwt>
<totfact> 0.30459771E+03</totfact>
</mgrwt>
</event>
<event>
 8    1  0.6836165E-004  0.9625748E+02  0.7546771E-02  0.1289899E+00
          2   -1    0    0  501    0  0.00000000000E+00  0.00000000000E+00  0.64165645460E+03  0.64165645460E+03  0.00000000000E+00 0. -1.
         -2   -1    0    0    0  501 -0.00000000000E+00 -0.00000000000E+00 -0.56210527074E+02  0.56210527074E+02  0.00000000000E+00 0.  1.
         23    2    1    2    0    0 -0.12187232185E+01  0.25728113792E+02 -0.10568519827E+02  0.94129684030E+02  0.89918199930E+02 0.  0.
         23    2    1    2    0    0  0.12187232185E+01 -0.25728113792E+02  0.59601444736E+03  0.60373729765E+03  0.92747409596E+02 0.  0.
          5    1    4    4  502    0 -0.42675046959E+02 -0.28806498984E+02  0.34489548843E+03  0.34874913901E+03  0.47000000000E+01 0. -1.
         -5    1    4    4    0  502  0.43893770177E+02  0.30783851914E+01  0.25111895892E+03  0.25498815864E+03  0.47000000000E+01 0.  1.
          5    1    3    3  503    0 -0.27750417719E+02 -0.19674501857E+02 -0.21084425944E+02  0.40296584524E+02  0.47000000000E+01 0. -1.
         -5    1    3    3    0  503  0.26531694501E+02  0.45402615650E+02  0.10515906118E+02  0.53833099506E+02  0.47000000000E+01 0.  1.
<mgrwt>
<rscale>  0 0.95569396E+02</rscale>
<asrwt>0</asrwt>
<pdfrwt beam="1">  1        2 0.98716373E-01 0.96257483E+02</pdfrwt>
<pdfrwt beam="2">  1       -2 0.86477738E-02 0.96257483E+02</pdfrwt>
<totfact> 0.37346110E+03</totfact>
</mgrwt>
</event>
<event>
 8    1  0.6836165E-004  0.1178931E+03  0.7546771E-02  0.1249670E+00
          1   -1    0    0  501    0  0.00000000000E+00  0.00000000000E+00  0.13257840324E+03  0.13257840324E+03  0.00000000000E+00 0. -1.
         -1   -1    0    0    0  501 -0.00000000000E+00 -0.00000000000E+00 -0.15667363703E+03  0.15667363703E+03  0.00000000000E+00 0.  1.
         23    2    1    2    0    0  0.33201338171E+02  0.55424980372E+02 -0.10023066832E+03  0.15474163654E+03  0.98613031088E+02 0.  0.
         23    2    1    2    0    0 -0.33201338171E+02 -0.55424980372E+02  0.76135434535E+02  0.13451040373E+03  0.90123176899E+02 0.  0.
          5    1    4    4  502    0  0.18035132184E+02 -0.33770054185E+02  0.67889474439E+02  0.78081709075E+02  0.47000000000E+01 0. -1.
         -5    1    4    4    0  502 -0.51236470355E+02 -0.21654926188E+02  0.82459600962E+01  0.56428694656E+02  0.47000000000E+01 0.  1.
          5    1    3    3  503    0  0.62349631994E+02  0.61043907018E+02 -0.68459847912E+02  0.11100754916E+03  0.47000000000E+01 0. -1.
         -5    1    3    3    0  503 -0.29148293823E+02 -0.56189266457E+01 -0.31770820407E+02  0.43734087378E+02  0.47000000000E+01 0.  1.
<mgrwt>
<rscale>  0 0.11610175E+03</rscale>
<asrwt>0</asrwt>
<pdfrwt beam="1">  1        1 0.20396677E-01 0.11789312E+03</pdfrwt>
<pdfrwt beam="2">  1       -1 0.24103636E-01 0.11789312E+03</pdfrwt>
<totfact> 0.35180517E+03</totfact>
</mgrwt>
</event>
<event>
 8    1  0.6836165E-004  0.9484537E+02  0.7546771E-02  0.1291794E+00
          2   -1    0    0  501    0  0.00000000000E+00  0.00000000000E+00  0.73118392728E+03  0.73118392728E+03  0.00000000000E+00 0. -1.
         -2   -1    0    0    0  501 -0.00000000000E+00 -0.00000000000E+00 -0.15796846382E+02  0.15796846382E+02  0.00000000000E+00 0.  1.
         23    2    1    2    0    0 -0.17666772815E+02 -0.15210697518E+02  0.17979865940E+03  0.20305927033E+03  0.91444131399E+02 0.  0.
         23    2    1    2    0    0  0.17666772815E+02  0.15210697518E+02  0.53558842150E+03  0.54392150333E+03  0.91935653343E+02 0.  0.
          5    1    4    4  502    0 -0.12916813749E+02  0.47653721448E+02  0.25577580202E+03  0.26053996266E+03  0.47000000000E+01 0. -1.
         -5    1    3    3    0  503 -0.12595072686E+02 -0.47138366068E+02  0.15345244682E+03  0.16109129351E+03  0.47000000000E+01 0.  1.
          5    1    3    3  503    0 -0.50717001296E+01  0.31927668550E+02  0.26346212581E+02  0.41967976823E+02  0.47000000000E+01 0. -1.
         -5    1    4    4    0  502  0.30583586564E+02 -0.32443023930E+02  0.27981261949E+03  0.28338154067E+03  0.47000000000E+01 0.  1.
<mgrwt>
<rscale>  0 0.94726055E+02</rscale>
<asrwt>0</asrwt>
<pdfrwt beam="1">  1        2 0.11248981E+00 0.94845372E+02</pdfrwt>
<pdfrwt beam="2">  1       -2 0.24302846E-02 0.94845372E+02</pdfrwt>
<totfact> 0.21112322E+04</totfact>
</mgrwt>
</event>
<event>
 8    1  0.6836165E-004  0.1082426E+03  0.7546771E-02  0.1264642E+00
         -1   -1    0    0    0  501 -0.00000000000E+00  0.00000000000E+00  0.31857127703E+02  0.31857127703E+02  0.00000000000E+00 0.  1.
          1   -1    0    0  501    0  0.00000000000E+00 -0.00000000000E+00 -0.39238574014E+03  0.39238574014E+03  0.00000000000E+00 0. -1.
         23    2    1    2    0    0 -0.90802759491E+01 -0.56583976833E+02 -0.24033888800E+03  0.26358916812E+03  0.91827395816E+02 0.  0.
         23    2    1    2    0    0  0.90802759491E+01  0.56583976833E+02 -0.12018972444E+03  0.16065369972E+03  0.89887949848E+02 0.  0.
          5    1    4    4  502    0 -0.23624085151E+02  0.22728116570E+02 -0.10631655239E+03  0.11135512559E+03  0.47000000000E+01 0. -1.
         -5    1    4    4    0  502  0.32704361100E+02  0.33855860262E+02 -0.13873172049E+02  0.49298574135E+02  0.47000000000E+01 0.  1.
          5    1    3    3  503    0 -0.34952858278E+02  0.99389380620E+01 -0.85939578182E+02  0.93424760582E+02  0.47000000000E+01 0. -1.
         -5    1    3    3    0  503  0.25872582329E+02 -0.66522914895E+02 -0.15439930982E+03  0.17016440754E+03  0.47000000000E+01 0.  1.
<mgrwt>
<rscale>  0 0.10783019E+03</rscale>
<asrwt>0</asrwt>
<pdfrwt beam="1">  1        1 0.60367035E-01 0.10824264E+03</pdfrwt>
<pdfrwt beam="2">  1       -1 0.49010967E-02 0.10824264E+03</pdfrwt>
<totfact> 0.10492728E+04</totfact>
</mgrwt>
</event>
<event>
 8    1  0.6836165E-004  0.9813731E+02  0.7546771E-02  0.1287525E+00
          1   -1    0    0  501    0  0.00000000000E+00  0.00000000000E+00  0.59698572786E+03  0.59698572786E+03  0.00000000000E+00 0. -1.
         -1   -1    0    0    0  501 -0.00000000000E+00 -0.00000000000E+00 -0.29809889507E+02  0.29809889507E+02  0.00000000000E+00 0.  1.
         23    2    1    2    0    0 -0.35693852767E+02  0.66657111950E+01  0.68564794925E+02  0.11971659467E+03  0.91172633538E+02 0.  0.
         23    2    1    2    0    0  0.35693852767E+02 -0.66657111950E+01  0.49861104343E+03  0.50707902270E+03  0.84839140702E+02 0.  0.
          5    1    4    4  502    0  0.50948000145E+02 -0.33378896423E+02  0.32055700475E+03  0.32632611409E+03  0.47000000000E+01 0. -1.
         -5    1    3    3    0  503 -0.20719234895E+02  0.48771094228E+02  0.36618278136E+02  0.64582463723E+02  0.47000000000E+01 0.  1.
          5    1    3    3  503    0 -0.14974617872E+02 -0.42105383033E+02  0.31946516788E+02  0.55134130951E+02  0.47000000000E+01 0. -1.
         -5    1    4    4    0  502 -0.15254147378E+02  0.26713185228E+02  0.17805403868E+03  0.18075290861E+03  0.47000000000E+01 0.  1.
<mgrwt>
<rscale>  0 0.96639820E+02</rscale>
<asrwt>0</asrwt>
<pdfrwt beam="1">  1        1 0.91843949E-01 0.98137312E+02</pdfrwt>
<pdfrwt beam="2">  1       -1 0.45861373E-02 0.98137312E+02</pdfrwt>
<totfact> 0.66906372E+03</totfact>
</mgrwt>
</event>
<event>
 8    1  0.6836165E-004  0.1076536E+03  0.7546771E-02  0.1273005E+00
          1   -1    0    0  501    0  0.00000000000E+00  0.00000000000E+00  0.10319324031E+04  0.10319324031E+04  0.00000000000E+00 0. -1.
         -1   -1    0    0    0  501 -0.00000000000E+00 -0.00000000000E+00 -0.14026826157E+02  0.14026826157E+02  0.00000000000E+00 0.  1.
         23    2    1    2    0    0 -0.81634251145E+01  0.10087316980E+02  0.82698775186E+03  0.83396525342E+03  0.10686864234E+03 0.  0.
         23    2    1    2    0    0  0.81634251145E+01 -0.10087316980E+02  0.19091782512E+03  0.21199397587E+03  0.91232858028E+02 0.  0.
          5    1    4    4  502    0  0.10006429175E+02  0.18927850940E+02  0.17881424092E+03  0.18015275441E+03  0.47000000000E+01 0. -1.
         -5    1    3    3    0  503 -0.46741021106E+01 -0.47960818460E+02  0.32227589419E+03  0.32589251190E+03  0.47000000000E+01 0.  1.
          5    1    3    3  503    0 -0.34893230039E+01  0.58048135440E+02  0.50471185767E+03  0.50807274152E+03  0.47000000000E+01 0. -1.
         -5    1    4    4    0  502 -0.18430040601E+01 -0.29015167921E+02  0.12103584194E+02  0.31841221455E+02  0.47000000000E+01 0.  1.
<mgrwt>
<rscale>  0 0.10354918E+03</rscale>
<asrwt>0</asrwt>
<pdfrwt beam="1">  1        1 0.15875877E+00 0.10765362E+03</pdfrwt>
<pdfrwt beam="2">  1       -1 0.21579741E-02 0.10765362E+03</pdfrwt>
<totfact> 0.88574660E+03</totfact>
</mgrwt>
</event>
<event>
 8    1  0.6836165E-004  0.1134715E+03  0.7546771E-02  0.1255171E+00
         -2   -1    0    0    0  501 -0.00000000000E+00  0.00000000000E+00  0.16965780932E+03  0.16965780932E+03  0.00000000000E+00 0.  1.
          2   -1    0    0  501    0  0.00000000000E+00 -0.00000000000E+00 -0.15750959135E+03  0.15750959135E+03  0.00000000000E+00 0. -1.
         23    2    1    2    0    0 -0.64448520307E+02 -0.31750783297E+01 -0.11261034242E+03  0.15986519793E+03  0.93338627568E+02 0.  0.
         23    2    1    2    0    0  0.64448520307E+02  0.31750783297E+01  0.12475856039E+03  0.16730220275E+03  0.90893540806E+02 0.  0.
          5    1    3    3  502    0 -0.10537216895E+02 -0.34271414306E+02 -0.83504885676E+02  0.90998454438E+02  0.47000000000E+01 0. -1.
         -5    1    4    4    0  503  0.58822348527E+02  0.32597999262E+02  0.11850943972E+03  0.13634249354E+03  0.47000000000E+01 0.  1.
          5    1    4    4  503    0  0.56261717810E+01 -0.29422920932E+02  0.62491206765E+01  0.30959709209E+02  0.47000000000E+01 0. -1.
         -5    1    3    3    0  502 -0.53911303413E+02  0.31096335976E+02 -0.29105456749E+02  0.68866743493E+02  0.47000000000E+01 0.  1.
<mgrwt>
<rscale>  0 0.11296755E+03</rscale>
<asrwt>0</asrwt>
<pdfrwt beam="1">  1        2 0.24232245E-01 0.11347155E+03</pdfrwt>
<pdfrwt beam="2">  1       -2 0.26101201E-01 0.11347155E+03</pdfrwt>
<totfact> 0.28064016E+03</totfact>
</mgrwt>
</event>
<event>
 8    1  0.6836165E-004  0.1793539E+03  0.7546771E-02  0.1168536E+00
          2   -1    0    0  501    0  0.00000000000E+00  0.00000000000E+00  0.81782095633E+03  0.81782095633E+03  0.00000000000E+00 0. -1.
         -2   -1    0    0    0  501 -0.00000000000E+00 -0.00000000000E+00 -0.54694290463E+02  0.54694290463E+02  0.00000000000E+00 0.  1.
         23    2    1    2    0    0 -0.15292869675E+03 -0.22835152487E+02  0.61314355501E+03  0.63871457917E+03  0.90014799383E+02 0.  0.
         23    2    1    2    0    0  0.15292869675E+03  0.22835152487E+02  0.14998311085E+03  0.23380066762E+03  0.90880075723E+02 0.  0.
          5    1    3    3  502    0 -0.13618776060E+03 -0.51255842469E+02  0.49639105092E+03  0.51730110473E+03  0.47000000000E+01 0. -1.
         -5    1    4    4    0  503  0.11208330909E+03  0.55254542569E+02  0.89365494137E+02  0.15370105463E+03  0.47000000000E+01 0.  1.
          5    1    4    4  503    0  0.40845387651E+02 -0.32419390082E+02  0.60617616712E+02  0.80099612992E+02  0.47000000000E+01 0. -1.
         -5    1    3    3    0  502 -0.16740936149E+02  0.28420689982E+02  0.11675250410E+03  0.12141347444E+03  0.47000000000E+01 0.  1.
<mgrwt>
<rscale>  0 0.17924457E+03</rscale>
<asrwt>0</asrwt>
<pdfrwt beam="1">  1        2 0.12581860E+00 0.17935389E+03</pdfrwt>
<pdfrwt beam="2">  1       -2 0.84145068E-02 0.17935389E+03</pdfrwt>
<totfact> 0.29772955E+03</totfact>
</mgrwt>
</event>
<event>
 8    1  0.6836165E-004  0.1585113E+03  0.7546771E-02  0.1191001E+00
          1   -1    0    0  501    0  0.00000000000E+00  0.00000000000E+00  0.62466427653E+03  0.62466427653E+03  0.00000000000E+00 0. -1.
         -1   -1    0    0    0  501 -0.00000000000E+00 -0.00000000000E+00 -0.11162429883E+03  0.11162429883E+03  0.00000000000E+00 0.  1.
         23    2    1    2    0    0 -0.67409970976E+02 -0.10786925189E+03 -0.38406119445E+02  0.16309769198E+03  0.94583018700E+02 0.  0.
         23    2    1    2    0    0  0.67409970976E+02  0.10786925189E+03  0.55144609715E+03  0.57319088338E+03  0.90967637358E+02 0.  0.
          5    1    3    3  502    0 -0.31380438550E+02 -0.26698689444E+02  0.29763560212E+02  0.51044210819E+02  0.47000000000E+01 0. -1.
         -5    1    3    3    0  502 -0.36029532426E+02 -0.81170562450E+02 -0.68169679657E+02  0.11205348116E+03  0.47000000000E+01 0.  1.
          5    1    4    4  503    0  0.42826189181E+02  0.96652799554E+02  0.52329646459E+03  0.53388868315E+03  0.47000000000E+01 0. -1.
         -5    1    4    4    0  503  0.24583781795E+02  0.11216452341E+02  0.28149632559E+02  0.39302200240E+02  0.47000000000E+01 0.  1.
<mgrwt>
<rscale>  0 0.15797599E+03</rscale>
<asrwt>0</asrwt>
<pdfrwt beam="1">  1        1 0.96102194E-01 0.15851128E+03</pdfrwt>
<pdfrwt beam="2">  1       -1 0.17172969E-01 0.15851128E+03</pdfrwt>
<totfact> 0.86183637E+02</totfact>
</mgrwt>
</event>
<event>
 8    1  0.6836165E-004  0.1271711E+03  0.7546771E-02  0.1232327E+00
          2   -1    0    0  501    0  0.00000000000E+00  0.00000000000E+00  0.90982185647E+02  0.90982185647E+02  0.00000000000E+00 0. -1.
         -2   -1    0    0    0  501 -0.00000000000E+00 -0.00000000000E+00 -0.22175826908E+03  0.22175826908E+03  0.00000000000E+00 0.  1.
         23    2    1    2    0    0 -0.44865660296E+02  0.78513742928E+02  0.56745841610E+01  0.12729769111E+03  0.89415691879E+02 0.  0.
         23    2    1    2    0    0  0.44865660296E+02 -0.78513742928E+02 -0.13645066759E+03  0.18544276361E+03  0.87137239961E+02 0.  0.
          5    1    4    4  502    0  0.66594950240E+02 -0.77075537809E+02 -0.12147243653E+03  0.15859750554E+03  0.47000000000E+01 0. -1.
         -5    1    4    4    0  502 -0.21729289944E+02 -0.14382051193E+01 -0.14978231059E+02  0.26845258075E+02  0.47000000000E+01 0.  1.
          5    1    3    3  503    0 -0.34252199679E+02  0.62254502695E+01  0.33911717726E+02  0.48826877977E+02  0.47000000000E+01 0. -1.
         -5    1    3    3    0  503 -0.10613460617E+02  0.72288292659E+02 -0.28237133565E+02  0.78470813133E+02  0.47000000000E+01 0.  1.
<mgrwt>
<rscale>  0 0.12677138E+03</rscale>
<asrwt>0</asrwt>
<pdfrwt beam="1">  1        2 0.13997259E-01 0.12717115E+03</pdfrwt>
<pdfrwt beam="2">  1       -2 0.34116656E-01 0.12717115E+03</pdfrwt>
<totfact> 0.32645100E+03</totfact>
</mgrwt>
</event>
<event>
 8    1  0.6836165E-004  0.1062108E+03  0.7546771E-02  0.1269813E+00
         -1   -1    0    0    0  501 -0.00000000000E+00  0.00000000000E+00  0.17279320989E+03  0.17279320989E+03  0.00000000000E+00 0.  1.
          1   -1    0    0  501    0  0.00000000000E+00 -0.00000000000E+00 -0.14452253786E+03  0.14452253786E+03  0.00000000000E+00 0. -1.
         23    2    1    2    0    0 -0.53071196260E+02  0.17594545121E+02  0.13358792589E+03  0.17066475284E+03  0.90302846175E+02 0.  0.
         23    2    1    2    0    0  0.53071196260E+02 -0.17594545121E+02 -0.10531725386E+03  0.14665099491E+03  0.85373710573E+02 0.  0.
          5    1    4    4  502    0  0.25104032539E+02  0.10920788784E+02 -0.10265464355E+03  0.10634633007E+03  0.47000000000E+01 0. -1.
         -5    1    3    3    0  503 -0.71759397655E+01 -0.30623335544E+02  0.76489596475E+02  0.82837377797E+02  0.47000000000E+01 0.  1.
          5    1    3    3  503    0 -0.45895256495E+02  0.48217880665E+02  0.57098329411E+02  0.87827375038E+02  0.47000000000E+01 0. -1.
         -5    1    4    4    0  502  0.27967163721E+02 -0.28515333905E+02 -0.26626103141E+01  0.40304664841E+02  0.47000000000E+01 0.  1.
<mgrwt>
<rscale>  0 0.10515567E+03</rscale>
<asrwt>0</asrwt>
<pdfrwt beam="1">  1        1 0.22234236E-01 0.10621075E+03</pdfrwt>
<pdfrwt beam="2">  1       -1 0.26583571E-01 0.10621075E+03</pdfrwt>
<totfact> 0.26735536E+03</totfact>
</mgrwt>
</event>
<event>
 8    1  0.6836165E-004  0.1284050E+03  0.7546771E-02  0.1230533E+00
         -1   -1    0    0    0  501 -0.00000000000E+00  0.00000000000E+00  0.71968715949E+02  0.71968715949E+02  0.00000000000E+00 0.  1.
          1   -1    0    0  501    0  0.00000000000E+00 -0.00000000000E+00 -0.32233637038E+03  0.32233637038E+03  0.00000000000E+00 0. -1.
         23    2    1    2    0    0 -0.31708821721E+02  0.85234840024E+02 -0.23241456231E+03  0.26465107054E+03  0.88052444806E+02 0.  0.
         23    2    1    2    0    0  0.31708821721E+02 -0.85234840024E+02 -0.17953092118E+02  0.12965401578E+03  0.90650002556E+02 0.  0.
          5    1    4    4  502    0  0.56926253950E+02 -0.23968175545E+02 -0.10285255747E+02  0.62792900184E+02  0.47000000000E+01 0. -1.
         -5    1    4    4    0  502 -0.25217432229E+02 -0.61266664479E+02 -0.76678363719E+01  0.66861115600E+02  0.47000000000E+01 0.  1.
          5    1    3    3  503    0 -0.41010765494E+02  0.13905377531E+02 -0.39853995184E+02  0.59039591316E+02  0.47000000000E+01 0.  1.
         -5    1    3    3    0  503  0.93019437725E+01  0.71329462493E+02 -0.19256056713E+03  0.20561147923E+03  0.47000000000E+01 0. -1.
<mgrwt>
<rscale>  0 0.12794748E+03</rscale>
<asrwt>0</asrwt>
<pdfrwt beam="1">  1        1 0.49590210E-01 0.12840502E+03</pdfrwt>
<pdfrwt beam="2">  1       -1 0.11072110E-01 0.12840502E+03</pdfrwt>
<totfact> 0.39955423E+03</totfact>
</mgrwt>
</event>
<event>
 8    1  0.6836165E-004  0.1315883E+03  0.7546771E-02  0.1238066E+00
         -2   -1    0    0    0  501 -0.00000000000E+00  0.00000000000E+00  0.15793500290E+03  0.15793500290E+03  0.00000000000E+00 0.  1.
          2   -1    0    0  501    0  0.00000000000E+00 -0.00000000000E+00 -0.13860603886E+03  0.13860603886E+03  0.00000000000E+00 0. -1.
         23    2    1    2    0    0 -0.88683478323E+01  0.44488042646E+02  0.10175477488E+03  0.16634159816E+03  0.12352189901E+03 0.  0.
         23    2    1    2    0    0  0.88683478323E+01 -0.44488042646E+02 -0.82425810833E+02  0.13019944361E+03  0.90000262733E+02 0.  0.
          5    1    4    4  502    0  0.10682996359E+02 -0.68838529354E+02 -0.78444248643E+02  0.10501647337E+03  0.47000000000E+01 0. -1.
         -5    1    3    3    0  503 -0.30022462061E+01  0.78190451510E+02  0.10569030481E+03  0.13158757814E+03  0.47000000000E+01 0.  1.
          5    1    3    3  503    0 -0.58661016263E+01 -0.33702408865E+02 -0.39355299282E+01  0.34754020018E+02  0.47000000000E+01 0. -1.
         -5    1    4    4    0  502 -0.18146485264E+01  0.24350486708E+02 -0.39815621894E+01  0.25182970231E+02  0.47000000000E+01 0.  1.
<mgrwt>
<rscale>  0 0.12310153E+03</rscale>
<asrwt>0</asrwt>
<pdfrwt beam="1">  1        2 0.21324006E-01 0.13158835E+03</pdfrwt>
<pdfrwt beam="2">  1       -2 0.24297693E-01 0.13158835E+03</pdfrwt>
<totfact> 0.36954230E+03</totfact>
</mgrwt>
</event>
<event>
 8    1  0.6836165E-004  0.9829462E+02  0.7546771E-02  0.1284613E+00
          1   -1    0    0  501    0  0.00000000000E+00  0.00000000000E+00  0.60843337478E+02  0.60843337478E+02  0.00000000000E+00 0. -1.
         -1   -1    0    0    0  501 -0.00000000000E+00 -0.00000000000E+00 -0.15869559688E+03  0.15869559688E+03  0.00000000000E+00 0.  1.
         23    2    1    2    0    0  0.30661378665E+02 -0.23817372628E+02 -0.61396881328E+02  0.11589395436E+03  0.90301961441E+02 0.  0.
         23    2    1    2    0    0 -0.30661378665E+02  0.23817372628E+02 -0.36455378074E+02  0.10364498000E+03  0.88915127552E+02 0.  0.
          5    1    4    4  502    0 -0.55041952805E+02  0.29018917429E+02 -0.41065850147E+01  0.62535335434E+02  0.47000000000E+01 0. -1.
         -5    1    3    3    0  503  0.41719174774E+02  0.24428467294E+02 -0.29951485331E+02  0.57065059640E+02  0.47000000000E+01 0.  1.
          5    1    3    3  503    0 -0.11057796109E+02 -0.48245839923E+02 -0.31445395996E+02  0.58828894720E+02  0.47000000000E+01 0. -1.
         -5    1    4    4    0  502  0.24380574140E+02 -0.52015448007E+01 -0.32348793059E+02  0.41109644563E+02  0.47000000000E+01 0.  1.
<mgrwt>
<rscale>  0 0.97974930E+02</rscale>
<asrwt>0</asrwt>
<pdfrwt beam="1">  1        1 0.93605134E-02 0.98294616E+02</pdfrwt>
<pdfrwt beam="2">  1       -1 0.24414707E-01 0.98294616E+02</pdfrwt>
<totfact> 0.92962225E+03</totfact>
</mgrwt>
</event>
<event>
 8    1  0.6836165E-004  0.1130092E+03  0.7546771E-02  0.1258109E+00
          1   -1    0    0  501    0  0.00000000000E+00  0.00000000000E+00  0.47076199194E+02  0.47076199194E+02  0.00000000000E+00 0. -1.
         -1   -1    0    0    0  501 -0.00000000000E+00 -0.00000000000E+00 -0.25679822910E+03  0.25679822910E+03  0.00000000000E+00 0.  1.
         23    2    1    2    0    0  0.62160156220E+02 -0.14607600171E+02 -0.11728892185E+03  0.16287345045E+03  0.93240563424E+02 0.  0.
         23    2    1    2    0    0 -0.62160156220E+02  0.14607600171E+02 -0.92433108053E+02  0.14100097785E+03  0.85206392277E+02 0.  0.
          5    1    3    3  502    0  0.49082244359E+02 -0.36351372768E+02 -0.23519761284E+02  0.65618276298E+02  0.47000000000E+01 0. -1.
         -5    1    3    3    0  502  0.13077911861E+02  0.21743772597E+02 -0.93769160567E+02  0.97255174149E+02  0.47000000000E+01 0.  1.
          5    1    4    4  503    0 -0.38863844052E+02 -0.94002692897E+01  0.23994073883E+01  0.40331260742E+02  0.47000000000E+01 0. -1.
         -5    1    4    4    0  503 -0.23296312168E+02  0.24007869461E+02 -0.94832515442E+02  0.10066971710E+03  0.47000000000E+01 0.  1.
<mgrwt>
<rscale>  0 0.11133953E+03</rscale>
<asrwt>0</asrwt>
<pdfrwt beam="1">  1        1 0.72424923E-02 0.11300916E+03</pdfrwt>
<pdfrwt beam="2">  1       -1 0.39507419E-01 0.11300916E+03</pdfrwt>
<totfact> 0.58977683E+03</totfact>
</mgrwt>
</event>
<event>
 8    1  0.6836165E-004  0.1248694E+03  0.7546771E-02  0.1244418E+00
          2   -1    0    0  501    0  0.00000000000E+00  0.00000000000E+00  0.18869086548E+03  0.18869086548E+03  0.00000000000E+00 0. -1.
         -2   -1    0    0    0  501 -0.00000000000E+00 -0.00000000000E+00 -0.77279212252E+02  0.77279212252E+02  0.00000000000E+00 0.  1.
         23    2    1    2    0    0  0.48137473448E+02  0.12178600546E+02  0.10310962357E+03  0.16193813387E+03  0.11457237916E+03 0.  0.
         23    2    1    2    0    0 -0.48137473448E+02 -0.12178600546E+02  0.83020296539E+01  0.10403194386E+03  0.91039480367E+02 0.  0.
          5    1    4    4  502    0 -0.57776220642E+02  0.26317856183E+02  0.70414377956E+01  0.64049926401E+02  0.47000000000E+01 0. -1.
         -5    1    3    3    0  503  0.61106109334E+02  0.48228685497E+02  0.39220615796E+02  0.87294383589E+02  0.47000000000E+01 0.  1.
          5    1    3    3  503    0 -0.12968635886E+02 -0.36050084951E+02  0.63889007777E+02  0.74643750284E+02  0.47000000000E+01 0. -1.
         -5    1    4    4    0  502  0.96387471942E+01 -0.38496456729E+02  0.12605918583E+01  0.39982017458E+02  0.47000000000E+01 0.  1.
<mgrwt>
<rscale>  0 0.11920291E+03</rscale>
<asrwt>0</asrwt>
<pdfrwt beam="1">  1        2 0.29029364E-01 0.12486939E+03</pdfrwt>
<pdfrwt beam="2">  1       -2 0.11889110E-01 0.12486939E+03</pdfrwt>
<totfact> 0.85767864E+03</totfact>
</mgrwt>
</event>
<event>
 8    1  0.6836165E-004  0.1282510E+03  0.7546771E-02  0.1231545E+00
         -1   -1    0    0    0  501 -0.00000000000E+00  0.00000000000E+00  0.21498543838E+02  0.21498543838E+02  0.00000000000E+00 0.  1.
          1   -1    0    0  501    0  0.00000000000E+00 -0.00000000000E+00 -0.77307572249E+03  0.77307572249E+03  0.00000000000E+00 0. -1.
         23    2    1    2    0    0  0.42694899402E+02  0.82732304534E+02 -0.44943964204E+03  0.46634354260E+03  0.82539803971E+02 0.  0.
         23    2    1    2    0    0 -0.42694899402E+02 -0.82732304534E+02 -0.30213753661E+03  0.32823072372E+03  0.88209003626E+02 0.  0.
          5    1    4    4  502    0 -0.31362367333E+02 -0.10087007161E+03 -0.26150811998E+03  0.28207615328E+03  0.47000000000E+01 0. -1.
         -5    1    4    4    0  502 -0.11332532069E+02  0.18137767078E+02 -0.40629416624E+02  0.46154570444E+02  0.47000000000E+01 0.  1.
          5    1    3    3  503    0  0.29156845309E+02  0.34014346409E+02 -0.36530005785E+03  0.36806700430E+03  0.47000000000E+01 0. -1.
         -5    1    3    3    0  503  0.13538054093E+02  0.48717958125E+02 -0.84139584193E+02  0.98276538302E+02  0.47000000000E+01 0.  1.
<mgrwt>
<rscale>  0 0.12728230E+03</rscale>
<asrwt>0</asrwt>
<pdfrwt beam="1">  1        1 0.11893470E+00 0.12825099E+03</pdfrwt>
<pdfrwt beam="2">  1       -1 0.33074690E-02 0.12825099E+03</pdfrwt>
<totfact> 0.76194279E+03</totfact>
</mgrwt>
</event>
<event>
 8    1  0.6836165E-004  0.9480080E+02  0.7546771E-02  0.1291829E+00
          1   -1    0    0  501    0  0.00000000000E+00  0.00000000000E+00  0.44377986619E+02  0.44377986619E+02  0.00000000000E+00 0. -1.
         -1   -1    0    0    0  501 -0.00000000000E+00 -0.00000000000E+00 -0.34926589346E+03  0.34926589346E+03  0.00000000000E+00 0.  1.
         23    2    1    2    0    0 -0.88606823604E+01  0.22901267974E+02 -0.28019100663E+03  0.29567894703E+03  0.91192432547E+02 0.  0.
         23    2    1    2    0    0  0.88606823604E+01 -0.22901267974E+02 -0.24696900207E+02  0.97964933044E+02  0.91565339839E+02 0.  0.
          5    1    4    4  502    0  0.10836380721E+02 -0.56744655629E+02 -0.42943504698E+01  0.58119829108E+02  0.47000000000E+01 0. -1.
         -5    1    4    4    0  502 -0.19756983608E+01  0.33843387654E+02 -0.20402549737E+02  0.39845103937E+02  0.47000000000E+01 0.  1.
          5    1    3    3  503    0 -0.33670767412E+02  0.44946461169E+02 -0.12827591948E+03  0.14010962304E+03  0.47000000000E+01 0. -1.
         -5    1    3    3    0  503  0.24810085052E+02 -0.22045193195E+02 -0.15191508715E+03  0.15556932399E+03  0.47000000000E+01 0.  1.
<mgrwt>
<rscale>  0 0.94710636E+02</rscale>
<asrwt>0</asrwt>
<pdfrwt beam="1">  1        1 0.68273826E-02 0.94800798E+02</pdfrwt>
<pdfrwt beam="2">  1       -1 0.53733214E-01 0.94800798E+02</pdfrwt>
<totfact> 0.36383971E+03</totfact>
</mgrwt>
</event>
<event>
 8    1  0.6836165E-004  0.9924034E+02  0.7546771E-02  0.1282387E+00
         -2   -1    0    0    0  501 -0.00000000000E+00  0.00000000000E+00  0.20284332380E+03  0.20284332380E+03  0.00000000000E+00 0.  1.
          2   -1    0    0  501    0  0.00000000000E+00 -0.00000000000E+00 -0.48275864064E+02  0.48275864064E+02  0.00000000000E+00 0. -1.
         23    2    1    2    0    0 -0.82077747601E+01 -0.33308328469E+02  0.70253748759E+02  0.12159043972E+03  0.93122679859E+02 0.  0.
         23    2    1    2    0    0  0.82077747601E+01  0.33308328469E+02  0.84313710974E+02  0.12952874814E+03  0.92152495492E+02 0.  0.
          5    1    3    3  502    0 -0.16230351987E+01 -0.58803628715E+02  0.16067213913E+02  0.61161641216E+02  0.47000000000E+01 0. -1.
         -5    1    4    4    0  503  0.49786611872E+02  0.18461445007E+02  0.38695957220E+02  0.65871076950E+02  0.47000000000E+01 0.  1.
          5    1    4    4  503    0 -0.41578837112E+02  0.14846883461E+02  0.45617753755E+02  0.63657671193E+02  0.47000000000E+01 0. -1.
         -5    1    3    3    0  502 -0.65847395614E+01  0.25495300246E+02  0.54186534846E+02  0.60428798501E+02  0.47000000000E+01 0.  1.
<mgrwt>
<rscale>  0 0.99012106E+02</rscale>
<asrwt>0</asrwt>
<pdfrwt beam="1">  1        2 0.74270561E-02 0.99240344E+02</pdfrwt>
<pdfrwt beam="2">  1       -2 0.31206665E-01 0.99240344E+02</pdfrwt>
<totfact> 0.81433184E+03</totfact>
</mgrwt>
</event>
<event>
 8    1  0.6836165E-004  0.1693855E+03  0.7546771E-02  0.1182654E+00
         -2   -1    0    0    0  501 -0.00000000000E+00  0.00000000000E+00  0.28056938023E+02  0.28056938023E+02  0.00000000000E+00 0.  1.
          2   -1    0    0  501    0  0.00000000000E+00 -0.00000000000E+00 -0.11063877377E+04  0.11063877377E+04  0.00000000000E+00 0. -1.
         23    2    1    2    0    0  0.12193967884E+03 -0.74150205097E+02 -0.74202165044E+03  0.75788751898E+03  0.58564695051E+02 0.  0.
         23    2    1    2    0    0 -0.12193967884E+03  0.74150205097E+02 -0.33630914923E+03  0.37655715674E+03  0.91235465929E+02 0.  0.
          5    1    4    4  502    0  0.12517906902E+02  0.20616725622E+02 -0.50476630232E+02  0.56140249092E+02  0.47000000000E+01 0. -1.
         -5    1    3    3    0  503  0.51054622173E+02 -0.40578544398E+01 -0.32799639030E+03  0.33200416063E+03  0.47000000000E+01 0.  1.
          5    1    3    3  503    0  0.70885056672E+02 -0.70092350657E+02 -0.41402526014E+03  0.42588335834E+03  0.47000000000E+01 0. -1.
         -5    1    4    4    0  502 -0.13445758575E+03  0.53533479475E+02 -0.28583251900E+03  0.32041690765E+03  0.47000000000E+01 0.  1.
<mgrwt>
<rscale>  0 0.16547153E+03</rscale>
<asrwt>0</asrwt>
<pdfrwt beam="1">  1        2 0.17021350E+00 0.16938550E+03</pdfrwt>
<pdfrwt beam="2">  1       -2 0.43164520E-02 0.16938550E+03</pdfrwt>
<totfact> 0.54617556E+03</totfact>
</mgrwt>
</event>
<event>
 8    1  0.6836165E-004  0.9660707E+02  0.7546771E-02  0.1288340E+00
         -1   -1    0    0    0  501 -0.00000000000E+00  0.00000000000E+00  0.63636032510E+02  0.63636032510E+02  0.00000000000E+00 0.  1.
          1   -1    0    0  501    0  0.00000000000E+00 -0.00000000000E+00 -0.37786253577E+03  0.37786253577E+03  0.00000000000E+00 0. -1.
         23    2    1    2    0    0 -0.25729426040E+02  0.21481616139E+02  0.15894707955E+02  0.97905913869E+02  0.90606087176E+02 0.  0.
         23    2    1    2    0    0  0.25729426040E+02 -0.21481616139E+02 -0.33012121122E+03  0.34359265441E+03  0.89176425552E+02 0.  0.
          5    1    3    3  502    0 -0.52697036018E+02  0.25292734950E+02 -0.10632339279E+02  0.59597287563E+02  0.47000000000E+01 0. -1.
         -5    1    3    3    0  502  0.26967609978E+02 -0.38111188105E+01  0.26527047234E+02  0.38308626306E+02  0.47000000000E+01 0.  1.
          5    1    4    4  503    0  0.47177316267E+02 -0.21191624147E+02 -0.30827229285E+03  0.31261586755E+03  0.47000000000E+01 0. -1.
         -5    1    4    4    0  503 -0.21447890227E+02 -0.28999199273E+00 -0.21848918365E+02  0.30976786862E+02  0.47000000000E+01 0.  1.
<mgrwt>
<rscale>  0 0.96270425E+02</rscale>
<asrwt>0</asrwt>
<pdfrwt beam="1">  1        1 0.58132697E-01 0.96607071E+02</pdfrwt>
<pdfrwt beam="2">  1       -1 0.97901590E-02 0.96607071E+02</pdfrwt>
<totfact> 0.38962048E+03</totfact>
</mgrwt>
</event>
<event>
 8    1  0.6836165E-004  0.1054459E+03  0.7546771E-02  0.1269719E+00
         -1   -1    0    0    0  501 -0.00000000000E+00  0.00000000000E+00  0.31079919986E+02  0.31079919986E+02  0.00000000000E+00 0.  1.
          1   -1    0    0  501    0  0.00000000000E+00 -0.00000000000E+00 -0.70698213136E+03  0.70698213136E+03  0.00000000000E+00 0. -1.
         23    2    1    2    0    0 -0.51381131068E+02 -0.33671203191E+01 -0.76592778897E+02  0.12954693852E+03  0.90909830990E+02 0.  0.
         23    2    1    2    0    0  0.51381131068E+02  0.33671203191E+01 -0.59930943247E+03  0.60851511283E+03  0.92018957600E+02 0.  0.
          5    1    3    3  502    0  0.24442350006E+02 -0.64741584602E+01 -0.33224588192E+02  0.42015550242E+02  0.47000000000E+01 0. -1.
         -5    1    3    3    0  502 -0.75823481074E+02  0.31070381411E+01 -0.43368190705E+02  0.87531388274E+02  0.47000000000E+01 0.  1.
          5    1    4    4  503    0  0.71147170279E+02  0.10426536068E+02 -0.55024229349E+03  0.55494081129E+03  0.47000000000E+01 0. -1.
         -5    1    4    4    0  503 -0.19766039211E+02 -0.70594157490E+01 -0.49067138982E+02  0.53574301532E+02  0.47000000000E+01 0.  1.
<mgrwt>
<rscale>  0 0.10520348E+03</rscale>
<asrwt>0</asrwt>
<pdfrwt beam="1">  1        1 0.10876648E+00 0.10544594E+03</pdfrwt>
<pdfrwt beam="2">  1       -1 0.47815264E-02 0.10544594E+03</pdfrwt>
<totfact> 0.50058176E+03</totfact>
</mgrwt>
</event>
<event>
 8    1  0.6836165E-004  0.9439896E+02  0.7546771E-02  0.1294011E+00
         -2   -1    0    0    0  501 -0.00000000000E+00  0.00000000000E+00  0.11093841087E+02  0.11093841087E+02  0.00000000000E+00 0.  1.
          2   -1    0    0  501    0  0.00000000000E+00 -0.00000000000E+00 -0.82591912062E+03  0.82591912062E+03  0.00000000000E+00 0. -1.
         23    2    1    2    0    0 -0.18854895725E+02  0.28158482282E+01 -0.49902571526E+03  0.50740633374E+03  0.89839228272E+02 0.  0.
         23    2    1    2    0    0  0.18854895725E+02 -0.28158482282E+01 -0.31579956428E+03  0.32960662797E+03  0.92453925333E+02 0.  0.
          5    1    3    3  502    0  0.15304540278E+02  0.37359901035E+02 -0.17069102548E+03  0.17546369237E+03  0.47000000000E+01 0. -1.
         -5    1    3    3    0  502 -0.34159436003E+02 -0.34544052806E+02 -0.32833468977E+03  0.33194264137E+03  0.47000000000E+01 0.  1.
          5    1    4    4  503    0 -0.34129418694E+02 -0.10689732158E+02 -0.17940072226E+03  0.18299124772E+03  0.47000000000E+01 0. -1.
         -5    1    4    4    0  503  0.52984314419E+02  0.78738839297E+01 -0.13639884202E+03  0.14661538025E+03  0.47000000000E+01 0.  1.
<mgrwt>
<rscale>  0 0.93752528E+02</rscale>
<asrwt>0</asrwt>
<pdfrwt beam="1">  1        2 0.12706446E+00 0.94398964E+02</pdfrwt>
<pdfrwt beam="2">  1       -2 0.17067450E-02 0.94398964E+02</pdfrwt>
<totfact> 0.30275546E+04</totfact>
</mgrwt>
</event>
<event>
 8    1  0.6836165E-004  0.1094376E+03  0.7546771E-02  0.1262146E+00
          1   -1    0    0  501    0  0.00000000000E+00  0.00000000000E+00  0.36204127173E+03  0.36204127173E+03  0.00000000000E+00 0. -1.
         -1   -1    0    0    0  501 -0.00000000000E+00 -0.00000000000E+00 -0.41879213561E+03  0.41879213561E+03  0.00000000000E+00 0.  1.
         23    2    1    2    0    0  0.55927339354E+02  0.19965533696E+02 -0.40320915189E+03  0.41750169595E+03  0.90573484707E+02 0.  0.
         23    2    1    2    0    0 -0.55927339354E+02 -0.19965533696E+02  0.34645828801E+03  0.36333171139E+03  0.91924411065E+02 0.  0.
          5    1    3    3  502    0  0.15635100011E+01 -0.29560848131E+02 -0.68401877125E+02  0.74680620646E+02  0.47000000000E+01 0. -1.
         -5    1    4    4    0  503 -0.93371833284E+01 -0.23410982535E+02  0.17505698647E+02  0.31045073375E+02  0.47000000000E+01 0.  1.
          5    1    4    4  503    0 -0.46590156025E+02  0.34454488391E+01  0.32895258936E+03  0.33228663802E+03  0.47000000000E+01 0. -1.
         -5    1    3    3    0  502  0.54363829353E+02  0.49526381827E+02 -0.33480727476E+03  0.34282107531E+03  0.47000000000E+01 0.  1.
<mgrwt>
<rscale>  0 0.10915343E+03</rscale>
<asrwt>0</asrwt>
<pdfrwt beam="1">  1        1 0.55698657E-01 0.10943759E+03</pdfrwt>
<pdfrwt beam="2">  1       -1 0.64429559E-01 0.10943759E+03</pdfrwt>
<totfact> 0.18080382E+02</totfact>
</mgrwt>
</event>
<event>
 8    1  0.6836165E-004  0.1303068E+03  0.7546771E-02  0.1227422E+00
          1   -1    0    0  501    0  0.00000000000E+00  0.00000000000E+00  0.86093544471E+02  0.86093544471E+02  0.00000000000E+00 0. -1.
         -1   -1    0    0    0  501 -0.00000000000E+00 -0.00000000000E+00 -0.19608623860E+03  0.19608623860E+03  0.00000000000E+00 0.  1.
         23    2    1    2    0    0 -0.60927967688E+02 -0.70599735265E+02 -0.47134800516E+02  0.13750439983E+03  0.89382496528E+02 0.  0.
         23    2    1    2    0    0  0.60927967688E+02  0.70599735265E+02 -0.62857893616E+02  0.14467538325E+03  0.91012701652E+02 0.  0.
          5    1    4    4  502    0  0.32857596558E+02  0.12040520854E+01 -0.61223165794E+02  0.69652260716E+02  0.47000000000E+01 0. -1.
         -5    1    4    4    0  502  0.28070371130E+02  0.69395683180E+02 -0.16347278217E+01  0.75023122532E+02  0.47000000000E+01 0.  1.
          5    1    3    3  503    0 -0.70584746355E+02 -0.14746252500E+02 -0.27964446911E+02  0.77483925248E+02  0.47000000000E+01 0. -1.
         -5    1    3    3    0  503  0.96567786665E+01 -0.55853482765E+02 -0.19170353605E+02  0.60020474578E+02  0.47000000000E+01 0.  1.
<mgrwt>
<rscale>  0 0.13002249E+03</rscale>
<asrwt>0</asrwt>
<pdfrwt beam="1">  1        1 0.13245161E-01 0.13030676E+03</pdfrwt>
<pdfrwt beam="2">  1       -1 0.30167113E-01 0.13030676E+03</pdfrwt>
<totfact> 0.42499089E+03</totfact>
</mgrwt>
</event>
<event>
 8    1  0.6836165E-004  0.9481050E+02  0.7546771E-02  0.1293685E+00
         -1   -1    0    0    0  501 -0.00000000000E+00  0.00000000000E+00  0.41340782333E+03  0.41340782333E+03  0.00000000000E+00 0.  1.
          1   -1    0    0  501    0  0.00000000000E+00 -0.00000000000E+00 -0.14707390012E+03  0.14707390012E+03  0.00000000000E+00 0. -1.
         23    2    1    2    0    0  0.26390282542E+02  0.14192737517E+02  0.39306957030E+03  0.40434232705E+03  0.89950817308E+02 0.  0.
         23    2    1    2    0    0 -0.26390282542E+02 -0.14192737517E+02 -0.12673564709E+03  0.15613939641E+03  0.86137715642E+02 0.  0.
          5    1    4    4  502    0 -0.57500551918E+02 -0.78180822675E+01 -0.91697304018E+02  0.10861823717E+03  0.47000000000E+01 0. -1.
         -5    1    4    4    0  502  0.31110269376E+02 -0.63746552494E+01 -0.35038343075E+02  0.47521159241E+02  0.47000000000E+01 0.  1.
          5    1    3    3  503    0 -0.20513863762E+02  0.36876025341E+02  0.18188188409E+03  0.18677197223E+03  0.47000000000E+01 0. -1.
         -5    1    3    3    0  503  0.46904146305E+02 -0.22683287824E+02  0.21118768621E+03  0.21757035482E+03  0.47000000000E+01 0.  1.
<mgrwt>
<rscale>  0 0.93894896E+02</rscale>
<asrwt>0</asrwt>
<pdfrwt beam="1">  1        1 0.22626754E-01 0.94810497E+02</pdfrwt>
<pdfrwt beam="2">  1       -1 0.63601203E-01 0.94810497E+02</pdfrwt>
<totfact> 0.56301778E+02</totfact>
</mgrwt>
</event>
<event>
 8    1  0.6836165E-004  0.1255130E+03  0.7546771E-02  0.1234778E+00
          1   -1    0    0  501    0  0.00000000000E+00  0.00000000000E+00  0.61508897950E+02  0.61508897950E+02  0.00000000000E+00 0. -1.
         -1   -1    0    0    0  501 -0.00000000000E+00 -0.00000000000E+00 -0.28672377816E+03  0.28672377816E+03  0.00000000000E+00 0.  1.
         23    2    1    2    0    0  0.69063289623E+02 -0.49658773849E+02 -0.52796363366E+02  0.13496840094E+03  0.90516746927E+02 0.  0.
         23    2    1    2    0    0 -0.69063289623E+02  0.49658773849E+02 -0.17241851684E+03  0.21326427517E+03  0.92291789013E+02 0.  0.
          5    1    3    3  502    0  0.25644620496E+02 -0.66546658305E+02 -0.51559593219E+02  0.88128235798E+02  0.47000000000E+01 0. -1.
         -5    1    4    4    0  503 -0.26817036582E+02  0.68645213104E+02 -0.74792611684E+02  0.10510634375E+03  0.47000000000E+01 0.  1.
          5    1    4    4  503    0 -0.42246253041E+02 -0.18986439255E+02 -0.97625905160E+02  0.10815793142E+03  0.47000000000E+01 0. -1.
         -5    1    3    3    0  502  0.43418669127E+02  0.16887884457E+02 -0.12367701465E+01  0.46840165143E+02  0.47000000000E+01 0.  1.
<mgrwt>
<rscale>  0 0.12518685E+03</rscale>
<asrwt>0</asrwt>
<pdfrwt beam="1">  1        1 0.94629074E-02 0.12551297E+03</pdfrwt>
<pdfrwt beam="2">  1       -1 0.44111350E-01 0.12551297E+03</pdfrwt>
<totfact> 0.34246505E+03</totfact>
</mgrwt>
</event>
<event>
 8    1  0.6836165E-004  0.9293358E+02  0.7546771E-02  0.1298303E+00
          1   -1    0    0  501    0  0.00000000000E+00  0.00000000000E+00  0.34330507414E+03  0.34330507414E+03  0.00000000000E+00 0. -1.
         -1   -1    0    0    0  501 -0.00000000000E+00 -0.00000000000E+00 -0.36823432395E+02  0.36823432395E+02  0.00000000000E+00 0.  1.
         23    2    1    2    0    0  0.14518614802E+02 -0.10910041828E+02  0.43651940376E+02  0.10267493465E+03  0.91141818711E+02 0.  0.
         23    2    1    2    0    0 -0.14518614802E+02  0.10910041828E+02  0.26282970137E+03  0.27745357189E+03  0.87012720007E+02 0.  0.
          5    1    3    3  502    0  0.40961221301E+02  0.23650338885E+02  0.32268060437E+02  0.57449785937E+02  0.47000000000E+01 0. -1.
         -5    1    3    3    0  502 -0.26442606499E+02 -0.34560380713E+02  0.11383879938E+02  0.45225148711E+02  0.47000000000E+01 0.  1.
          5    1    4    4  503    0  0.34685426004E+02 -0.66367746178E+01  0.88403358181E+02  0.95311957760E+02  0.47000000000E+01 0.  1.
         -5    1    4    4    0  503 -0.49204040806E+02  0.17546816446E+02  0.17442634319E+03  0.18214161413E+03  0.47000000000E+01 0. -1.
<mgrwt>
<rscale>  0 0.91905178E+02</rscale>
<asrwt>0</asrwt>
<pdfrwt beam="1">  1        1 0.52816163E-01 0.92933580E+02</pdfrwt>
<pdfrwt beam="2">  1       -1 0.56651437E-02 0.92933580E+02</pdfrwt>
<totfact> 0.98806669E+03</totfact>
</mgrwt>
</event>
<event>
 8    1  0.6836165E-004  0.1002938E+03  0.7546771E-02  0.1280312E+00
         -2   -1    0    0    0  501 -0.00000000000E+00  0.00000000000E+00  0.11159149168E+02  0.11159149168E+02  0.00000000000E+00 0.  1.
          2   -1    0    0  501    0  0.00000000000E+00 -0.00000000000E+00 -0.89066615221E+03  0.89066615221E+03  0.00000000000E+00 0. -1.
         23    2    1    2    0    0 -0.66724090408E+01 -0.40780203761E+02 -0.43966629653E+03  0.45069483547E+03  0.90065733511E+02 0.  0.
         23    2    1    2    0    0  0.66724090408E+01  0.40780203761E+02 -0.43984070651E+03  0.45113046591E+03  0.91385469876E+02 0.  0.
          5    1    4    4  502    0 -0.34065448998E+02  0.44765626638E+02 -0.30332169950E+03  0.30852967366E+03  0.47000000000E+01 0. -1.
         -5    1    4    4    0  502  0.40737858039E+02 -0.39854228776E+01 -0.13651900702E+03  0.14260079225E+03  0.47000000000E+01 0.  1.
          5    1    3    3  503    0 -0.36512644703E+02  0.33728380631E+01 -0.27702859328E+03  0.27948431218E+03  0.47000000000E+01 0. -1.
         -5    1    3    3    0  503  0.29840235662E+02 -0.44153041824E+02 -0.16263770325E+03  0.17121052329E+03  0.47000000000E+01 0.  1.
<mgrwt>
<rscale>  0 0.99992206E+02</rscale>
<asrwt>0</asrwt>
<pdfrwt beam="1">  1        2 0.13702556E+00 0.10029382E+03</pdfrwt>
<pdfrwt beam="2">  1       -2 0.17167922E-02 0.10029382E+03</pdfrwt>
<totfact> 0.27457542E+04</totfact>
</mgrwt>
</event>
<event>
 8    1  0.6836165E-004  0.3822006E+03  0.7546771E-02  0.1050178E+00
          1   -1    0    0  501    0  0.00000000000E+00  0.00000000000E+00  0.35288771174E+03  0.35288771174E+03  0.00000000000E+00 0. -1.
         -1   -1    0    0    0  501 -0.00000000000E+00 -0.00000000000E+00 -0.41491382965E+03  0.41491382965E+03  0.00000000000E+00 0.  1.
         23    2    1    2    0    0 -0.36228225837E+03 -0.82205821470E+02 -0.54878153431E+02  0.38553409433E+03  0.87285132468E+02 0.  0.
         23    2    1    2    0    0  0.36228225837E+03  0.82205821470E+02 -0.71479644718E+01  0.38226744706E+03  0.89839166698E+02 0.  0.
          5    1    4    4  502    0  0.26173998962E+02 -0.15885779887E+02  0.72391941171E+01  0.31810881090E+02  0.47000000000E+01 0. -1.
         -5    1    4    4    0  502  0.33610825941E+03  0.98091601358E+02 -0.14387158589E+02  0.35045656597E+03  0.47000000000E+01 0.  1.
          5    1    3    3  503    0 -0.19782041380E+03 -0.51842126402E+02  0.13032542685E+02  0.20496941078E+03  0.47000000000E+01 0. -1.
         -5    1    3    3    0  503 -0.16446184457E+03 -0.30363695069E+02 -0.67910696116E+02  0.18056468355E+03  0.47000000000E+01 0.  1.
<mgrwt>
<rscale>  0 0.38205246E+03</rscale>
<asrwt>0</asrwt>
<pdfrwt beam="1">  1        1 0.54290418E-01 0.38220061E+03</pdfrwt>
<pdfrwt beam="2">  1       -1 0.63832896E-01 0.38220061E+03</pdfrwt>
<totfact> 0.18302901E+02</totfact>
</mgrwt>
</event>
<event>
 8    1  0.6836165E-004  0.1040053E+03  0.7546771E-02  0.1273709E+00
         -2   -1    0    0    0  501 -0.00000000000E+00  0.00000000000E+00  0.15057407429E+03  0.15057407429E+03  0.00000000000E+00 0.  1.
          2   -1    0    0  501    0  0.00000000000E+00 -0.00000000000E+00 -0.21015377569E+03  0.21015377569E+03  0.00000000000E+00 0. -1.
         23    2    1    2    0    0  0.35057487269E+02  0.68449260103E+01  0.11783282179E+03  0.15507689992E+03  0.94278261392E+02 0.  0.
         23    2    1    2    0    0 -0.35057487269E+02 -0.68449260103E+01 -0.17741252319E+03  0.20565095005E+03  0.97679217061E+02 0.  0.
          5    1    3    3  502    0 -0.21443229666E+02 -0.26163176631E+02  0.51387832796E+02  0.61701890323E+02  0.47000000000E+01 0. -1.
         -5    1    4    4    0  503 -0.67661282287E+02  0.26516836406E+01 -0.98592405755E+02  0.11969809113E+03  0.47000000000E+01 0.  1.
          5    1    4    4  503    0  0.32603795017E+02 -0.94966096508E+01 -0.78820117439E+02  0.85952858926E+02  0.47000000000E+01 0. -1.
         -5    1    3    3    0  502  0.56500716936E+02  0.33008102641E+02  0.66444988998E+02  0.93375009596E+02  0.47000000000E+01 0.  1.
<mgrwt>
<rscale>  0 0.10319918E+03</rscale>
<asrwt>0</asrwt>
<pdfrwt beam="1">  1        2 0.32331350E-01 0.10400534E+03</pdfrwt>
<pdfrwt beam="2">  1       -2 0.23165242E-01 0.10400534E+03</pdfrwt>
<totfact> 0.25138993E+03</totfact>
</mgrwt>
</event>
<event>
 8    1  0.6836165E-004  0.9695786E+02  0.7546771E-02  0.1287337E+00
          1   -1    0    0  501    0  0.00000000000E+00  0.00000000000E+00  0.64377709203E+03  0.64377709203E+03  0.00000000000E+00 0. -1.
         -1   -1    0    0    0  501 -0.00000000000E+00 -0.00000000000E+00 -0.29146047241E+02  0.29146047241E+02  0.00000000000E+00 0.  1.
         23    2    1    2    0    0  0.33645076675E+02  0.40142869054E+01  0.67776461763E+02  0.11753970299E+03  0.89854478610E+02 0.  0.
         23    2    1    2    0    0 -0.33645076675E+02 -0.40142869054E+01  0.54685458303E+03  0.55538343628E+03  0.90844485987E+02 0.  0.
          5    1    4    4  502    0 -0.63320391417E+02 -0.78060064752E+01  0.42682634730E+03  0.43159382116E+03  0.47000000000E+01 0. -1.
         -5    1    4    4    0  502  0.29675314742E+02  0.37917195699E+01  0.12002823572E+03  0.12378961513E+03  0.47000000000E+01 0.  1.
          5    1    3    3  503    0 -0.23058241815E+02 -0.71485312184E+01 -0.43718738973E+01  0.24979737700E+02  0.47000000000E+01 0. -1.
         -5    1    3    3    0  503  0.56703318490E+02  0.11162818124E+02  0.72148335660E+02  0.92559965291E+02  0.47000000000E+01 0.  1.
<mgrwt>
<rscale>  0 0.96725282E+02</rscale>
<asrwt>0</asrwt>
<pdfrwt beam="1">  1        1 0.99042619E-01 0.96957858E+02</pdfrwt>
<pdfrwt beam="2">  1       -1 0.44840078E-02 0.96957858E+02</pdfrwt>
<totfact> 0.62369664E+03</totfact>
</mgrwt>
</event>
<event>
 8    1  0.6836165E-004  0.9568936E+02  0.7546771E-02  0.1289848E+00
         -1   -1    0    0    0  501 -0.00000000000E+00  0.00000000000E+00  0.23606392563E+03  0.23606392563E+03  0.00000000000E+00 0.  1.
          1   -1    0    0  501    0  0.00000000000E+00 -0.00000000000E+00 -0.49001792285E+02  0.49001792285E+02  0.00000000000E+00 0. -1.
         23    2    1    2    0    0  0.10260854272E+02  0.27029850836E+02  0.15925379732E+03  0.18579081092E+03  0.91217078971E+02 0.  0.
         23    2    1    2    0    0 -0.10260854272E+02 -0.27029850836E+02  0.27808336022E+02  0.99274906990E+02  0.90809171558E+02 0.  0.
          5    1    4    4  502    0  0.39311303731E+02 -0.21589919459E+02  0.10747285978E+02  0.46358358245E+02  0.47000000000E+01 0. -1.
         -5    1    4    4    0  502 -0.49572158003E+02 -0.54399313766E+01  0.17061050045E+02  0.52916548745E+02  0.47000000000E+01 0.  1.
          5    1    3    3  503    0  0.35091008949E+02 -0.84525627555E+01  0.23763178294E+02  0.43469568307E+02  0.47000000000E+01 0. -1.
         -5    1    3    3    0  503 -0.24830154677E+02  0.35482413591E+02  0.13549061903E+03  0.14232124262E+03  0.47000000000E+01 0.  1.
<mgrwt>
<rscale>  0 0.95592020E+02</rscale>
<asrwt>0</asrwt>
<pdfrwt beam="1">  1        1 0.75387374E-02 0.95689359E+02</pdfrwt>
<pdfrwt beam="2">  1       -1 0.36317526E-01 0.95689359E+02</pdfrwt>
<totfact> 0.63783637E+03</totfact>
</mgrwt>
</event>
<event>
 8    1  0.6836165E-004  0.1092720E+03  0.7546771E-02  0.1263280E+00
          1   -1    0    0  501    0  0.00000000000E+00  0.00000000000E+00  0.38503119819E+03  0.38503119819E+03  0.00000000000E+00 0. -1.
         -1   -1    0    0    0  501 -0.00000000000E+00 -0.00000000000E+00 -0.30301112769E+02  0.30301112769E+02  0.00000000000E+00 0.  1.
         23    2    1    2    0    0  0.49308417000E+00 -0.55445729052E+02  0.16798985766E+03  0.20040197774E+03  0.94158846643E+02 0.  0.
         23    2    1    2    0    0 -0.49308417000E+00  0.55445729052E+02  0.18674022776E+03  0.21493033322E+03  0.90822152989E+02 0.  0.
          5    1    4    4  502    0  0.15537369106E+02 -0.20687296530E+02  0.30095792387E+02  0.39965244849E+02  0.47000000000E+01 0. -1.
         -5    1    3    3    0  503 -0.22981741777E+02 -0.12563988825E+02  0.13157049019E+01  0.26642735402E+02  0.47000000000E+01 0.  1.
          5    1    3    3  503    0  0.23474825947E+02 -0.42881740228E+02  0.16667415276E+03  0.17375924234E+03  0.47000000000E+01 0. -1.
         -5    1    4    4    0  502 -0.16030453276E+02  0.76133025582E+02  0.15664443537E+03  0.17496508838E+03  0.47000000000E+01 0.  1.
<mgrwt>
<rscale>  0 0.10854939E+03</rscale>
<asrwt>0</asrwt>
<pdfrwt beam="1">  1        1 0.59235565E-01 0.10927196E+03</pdfrwt>
<pdfrwt beam="2">  1       -1 0.46617099E-02 0.10927196E+03</pdfrwt>
<totfact> 0.11572106E+04</totfact>
</mgrwt>
</event>
<event>
 8    1  0.6836165E-004  0.9237144E+02  0.7546771E-02  0.1300966E+00
         -1   -1    0    0    0  501 -0.00000000000E+00  0.00000000000E+00  0.32363638806E+03  0.32363638806E+03  0.00000000000E+00 0.  1.
          1   -1    0    0  501    0  0.00000000000E+00 -0.00000000000E+00 -0.49153256418E+02  0.49153256418E+02  0.00000000000E+00 0. -1.
         23    2    1    2    0    0 -0.62084323062E+01  0.81279028494E+01  0.79995681122E+01  0.92717177994E+02  0.91803456192E+02 0.  0.
         23    2    1    2    0    0  0.62084323062E+01 -0.81279028494E+01  0.26648356353E+03  0.28007246648E+03  0.85571545590E+02 0.  0.
          5    1    4    4  502    0  0.20902501403E+02  0.21688897135E+02  0.36077441931E+02  0.47233405976E+02  0.47000000000E+01 0. -1.
         -5    1    4    4    0  502 -0.14694069097E+02 -0.29816799985E+02  0.23040612160E+03  0.23283906050E+03  0.47000000000E+01 0.  1.
          5    1    3    3  503    0  0.74632645631E+01  0.47040993658E+02 -0.74231633303E+01  0.48432930493E+02  0.47000000000E+01 0. -1.
         -5    1    3    3    0  503 -0.13671696869E+02 -0.38913090809E+02  0.15422731442E+02  0.44284247501E+02  0.47000000000E+01 0.  1.
<mgrwt>
<rscale>  0 0.90783235E+02</rscale>
<asrwt>0</asrwt>
<pdfrwt beam="1">  1        1 0.75620397E-02 0.92371435E+02</pdfrwt>
<pdfrwt beam="2">  1       -1 0.49790212E-01 0.92371435E+02</pdfrwt>
<totfact> 0.36411568E+03</totfact>
</mgrwt>
</event>
<event>
 8    1  0.6836165E-004  0.9221809E+02  0.7546771E-02  0.1297598E+00
          2   -1    0    0  501    0  0.00000000000E+00  0.00000000000E+00  0.65918580209E+03  0.65918580209E+03  0.00000000000E+00 0. -1.
         -2   -1    0    0    0  501 -0.00000000000E+00 -0.00000000000E+00 -0.13763394515E+02  0.13763394515E+02  0.00000000000E+00 0.  1.
         23    2    1    2    0    0  0.12914555249E+02 -0.13553999120E+02  0.23804291326E+03  0.25526243853E+03  0.90244043260E+02 0.  0.
         23    2    1    2    0    0 -0.12914555249E+02  0.13553999120E+02  0.40737949431E+03  0.41768675807E+03  0.90297723395E+02 0.  0.
          5    1    4    4  502    0 -0.96571654660E+00  0.51614838541E+02  0.24345740998E+03  0.24891489437E+03  0.47000000000E+01 0. -1.
         -5    1    3    3    0  503  0.23781226524E+02  0.15191079872E+02  0.19740650672E+02  0.34757717583E+02  0.47000000000E+01 0.  1.
          5    1    3    3  503    0 -0.10866671275E+02 -0.28745078992E+02  0.21830226259E+03  0.22050472095E+03  0.47000000000E+01 0. -1.
         -5    1    4    4    0  502 -0.11948838702E+02 -0.38060839421E+02  0.16392208433E+03  0.16877186370E+03  0.47000000000E+01 0.  1.
<mgrwt>
<rscale>  0 0.92204943E+02</rscale>
<asrwt>0</asrwt>
<pdfrwt beam="1">  1        2 0.10141318E+00 0.92218087E+02</pdfrwt>
<pdfrwt beam="2">  1       -2 0.21174458E-02 0.92218087E+02</pdfrwt>
<totfact> 0.28982984E+04</totfact>
</mgrwt>
</event>
<event>
 8    1  0.6836165E-004  0.1706754E+03  0.7546771E-02  0.1177193E+00
          3   -1    0    0  501    0  0.00000000000E+00  0.00000000000E+00  0.23780146876E+03  0.23780146876E+03  0.00000000000E+00 0. -1.
         -3   -1    0    0    0  501 -0.00000000000E+00 -0.00000000000E+00 -0.16800625071E+03  0.16800625071E+03  0.00000000000E+00 0.  1.
         23    2    1    2    0    0  0.30898690510E+02  0.14238679911E+03  0.14066687355E+03  0.22117250650E+03  0.88889699507E+02 0.  0.
         23    2    1    2    0    0 -0.30898690510E+02 -0.14238679911E+03 -0.70871655510E+02  0.18463521297E+03  0.88536098165E+02 0.  0.
          5    1    4    4  502    0 -0.45130347587E+01 -0.39423892228E+02  0.20028989161E+02  0.44697440284E+02  0.47000000000E+01 0. -1.
         -5    1    4    4    0  502 -0.26385655751E+02 -0.10296290688E+03 -0.90900644671E+02  0.13993777269E+03  0.47000000000E+01 0.  1.
          5    1    3    3  503    0  0.41893531134E+02  0.10072743573E+03  0.48814016565E+02  0.11960761879E+03  0.47000000000E+01 0. -1.
         -5    1    3    3    0  503 -0.10994840624E+02  0.41659363380E+02  0.91852856988E+02  0.10156488770E+03  0.47000000000E+01 0.  1.
<mgrwt>
<rscale>  0 0.17062946E+03</rscale>
<asrwt>0</asrwt>
<pdfrwt beam="1">  1        3 0.36584841E-01 0.17067545E+03</pdfrwt>
<pdfrwt beam="2">  1       -3 0.25847115E-01 0.17067545E+03</pdfrwt>
<totfact> 0.25025170E+02</totfact>
</mgrwt>
</event>
<event>
 8    1  0.6836165E-004  0.1088043E+03  0.7546771E-02  0.1266697E+00
         -1   -1    0    0    0  501 -0.00000000000E+00  0.00000000000E+00  0.18533887767E+02  0.18533887767E+02  0.00000000000E+00 0.  1.
          1   -1    0    0  501    0  0.00000000000E+00 -0.00000000000E+00 -0.62164733256E+03  0.62164733256E+03  0.00000000000E+00 0. -1.
         23    2    1    2    0    0 -0.27309219805E+02 -0.32270932452E+02 -0.22178460578E+03  0.24363353136E+03  0.91551513785E+02 0.  0.
         23    2    1    2    0    0  0.27309219805E+02  0.32270932452E+02 -0.38132883901E+03  0.39654768896E+03  0.10025557137E+03 0.  0.
          5    1    3    3  502    0  0.91684895373E+01 -0.51110718403E+02 -0.16739073805E+03  0.17532289046E+03  0.47000000000E+01 0. -1.
         -5    1    3    3    0  502 -0.36477709342E+02  0.18839785950E+02 -0.54393867732E+02  0.68310640901E+02  0.47000000000E+01 0.  1.
          5    1    4    4  503    0  0.20510929795E+02  0.60366369225E+02 -0.33961769210E+03  0.34558220955E+03  0.47000000000E+01 0. -1.
         -5    1    4    4    0  503  0.67982900099E+01 -0.28095436772E+02 -0.41711146918E+02  0.50965479412E+02  0.47000000000E+01 0.  1.
<mgrwt>
<rscale>  0 0.10675639E+03</rscale>
<asrwt>0</asrwt>
<pdfrwt beam="1">  1        1 0.95638046E-01 0.10880435E+03</pdfrwt>
<pdfrwt beam="2">  1       -1 0.28513675E-02 0.10880435E+03</pdfrwt>
<totfact> 0.12732408E+04</totfact>
</mgrwt>
</event>
<event>
 8    1  0.6836165E-004  0.9354281E+02  0.7546771E-02  0.1297993E+00
         -2   -1    0    0    0  501 -0.00000000000E+00  0.00000000000E+00  0.40300099880E+02  0.40300099880E+02  0.00000000000E+00 0.  1.
          2   -1    0    0  501    0  0.00000000000E+00 -0.00000000000E+00 -0.34406390150E+03  0.34406390150E+03  0.00000000000E+00 0. -1.
         23    2    1    2    0    0  0.10358513122E+02  0.14008401727E+01 -0.27167867344E+03  0.28547156882E+03  0.87037083216E+02 0.  0.
         23    2    1    2    0    0 -0.10358513122E+02 -0.14008401727E+01 -0.32085128172E+02  0.98892432554E+02  0.92956961112E+02 0.  0.
          5    1    4    4  502    0 -0.14550966730E+02 -0.45995373607E+02 -0.15276347199E+02  0.50820879663E+02  0.47000000000E+01 0. -1.
         -5    1    4    4    0  502  0.41924536077E+01  0.44594533434E+02 -0.16808780974E+02  0.48071552890E+02  0.47000000000E+01 0.  1.
          5    1    3    3  503    0  0.44238670214E+02  0.86687834710E+01 -0.93653167587E+02  0.10404428648E+03  0.47000000000E+01 0. -1.
         -5    1    3    3    0  503 -0.33880157092E+02 -0.72679432982E+01 -0.17802550586E+03  0.18142728235E+03  0.47000000000E+01 0.  1.
<mgrwt>
<rscale>  0 0.92036753E+02</rscale>
<asrwt>0</asrwt>
<pdfrwt beam="1">  1        2 0.52932906E-01 0.93542812E+02</pdfrwt>
<pdfrwt beam="2">  1       -2 0.62000156E-02 0.93542812E+02</pdfrwt>
<totfact> 0.12119030E+04</totfact>
</mgrwt>
</event>
<event>
 8    1  0.6836165E-004  0.1058258E+03  0.7546771E-02  0.1271323E+00
         -1   -1    0    0    0  501 -0.00000000000E+00  0.00000000000E+00  0.10475139993E+03  0.10475139993E+03  0.00000000000E+00 0.  1.
          1   -1    0    0  501    0  0.00000000000E+00 -0.00000000000E+00 -0.10681291476E+03  0.10681291476E+03  0.00000000000E+00 0. -1.
         23    2    1    2    0    0  0.11916902469E+02 -0.51767005830E+02  0.22950739522E+02  0.10828594118E+03  0.91527444820E+02 0.  0.
         23    2    1    2    0    0 -0.11916902469E+02  0.51767005830E+02 -0.25012254352E+02  0.10327837350E+03  0.84964546187E+02 0.  0.
          5    1    3    3  502    0 -0.30413705777E+02 -0.43048423952E+01 -0.14544204596E+02  0.34309605863E+02  0.47000000000E+01 0. -1.
         -5    1    3    3    0  502  0.42330608245E+02 -0.47462163434E+02  0.37494944118E+02  0.73976335315E+02  0.47000000000E+01 0.  1.
          5    1    4    4  503    0  0.34952840619E+01  0.72988934387E+02 -0.22032809293E+02  0.76466569420E+02  0.47000000000E+01 0. -1.
         -5    1    4    4    0  503 -0.15412186530E+02 -0.21221928557E+02 -0.29794450592E+01  0.26811804083E+02  0.47000000000E+01 0.  1.
<mgrwt>
<rscale>  0 0.10439144E+03</rscale>
<asrwt>0</asrwt>
<pdfrwt beam="1">  1        1 0.16432756E-01 0.10582584E+03</pdfrwt>
<pdfrwt beam="2">  1       -1 0.16115600E-01 0.10582584E+03</pdfrwt>
<totfact> 0.87357712E+03</totfact>
</mgrwt>
</event>
<event>
 8    1  0.6836165E-004  0.1089853E+03  0.7546771E-02  0.1266950E+00
          2   -1    0    0  501    0  0.00000000000E+00  0.00000000000E+00  0.35309466363E+03  0.35309466363E+03  0.00000000000E+00 0. -1.
         -2   -1    0    0    0  501 -0.00000000000E+00 -0.00000000000E+00 -0.30908944207E+02  0.30908944207E+02  0.00000000000E+00 0.  1.
         23    2    1    2    0    0  0.31839017497E+02 -0.33809294670E+02  0.16012877095E+03  0.18870833649E+03  0.88390166498E+02 0.  0.
         23    2    1    2    0    0 -0.31839017497E+02  0.33809294670E+02  0.16205694847E+03  0.19529527134E+03  0.98595116615E+02 0.  0.
          5    1    4    4  502    0  0.32651455869E+02  0.29017217488E+02  0.59537485990E+02  0.73992693687E+02  0.47000000000E+01 0. -1.
         -5    1    3    3    0  503  0.43796054671E+01 -0.55471247551E+02  0.57376277139E+02  0.80064770201E+02  0.47000000000E+01 0.  1.
          5    1    3    3  503    0  0.27459412030E+02  0.21661952882E+02  0.10275249381E+03  0.10864356629E+03  0.47000000000E+01 0. -1.
         -5    1    4    4    0  502 -0.64490473367E+02  0.47920771821E+01  0.10251946248E+03  0.12130257766E+03  0.47000000000E+01 0.  1.
<mgrwt>
<rscale>  0 0.10662539E+03</rscale>
<asrwt>0</asrwt>
<pdfrwt beam="1">  1        2 0.54322253E-01 0.10898527E+03</pdfrwt>
<pdfrwt beam="2">  1       -2 0.47552224E-02 0.10898527E+03</pdfrwt>
<totfact> 0.17789075E+04</totfact>
</mgrwt>
</event>
<event>
 8    1  0.6836165E-004  0.9786984E+02  0.7546771E-02  0.1285416E+00
          1   -1    0    0  501    0  0.00000000000E+00  0.00000000000E+00  0.41892487213E+03  0.41892487213E+03  0.00000000000E+00 0. -1.
         -1   -1    0    0    0  501 -0.00000000000E+00 -0.00000000000E+00 -0.35878636364E+02  0.35878636364E+02  0.00000000000E+00 0.  1.
         23    2    1    2    0    0  0.40059885477E+01  0.35640618532E+02  0.53933006865E+02  0.11174647697E+03  0.91061541012E+02 0.  0.
         23    2    1    2    0    0 -0.40059885477E+01 -0.35640618532E+02  0.32911322890E+03  0.34305703153E+03  0.89923900100E+02 0.  0.
          5    1    3    3  502    0 -0.92233777497E+01 -0.26598525588E+02  0.35063662908E+02  0.45211754192E+02  0.47000000000E+01 0. -1.
         -5    1    3    3    0  502  0.13229366297E+02  0.62239144120E+02  0.18869343958E+02  0.66534722775E+02  0.47000000000E+01 0.  1.
          5    1    4    4  503    0  0.36106729455E+02 -0.33868074257E+02  0.24150476721E+03  0.24657125735E+03  0.47000000000E+01 0. -1.
         -5    1    4    4    0  503 -0.40112718003E+02 -0.17725442747E+01  0.87608461689E+02  0.96485774176E+02  0.47000000000E+01 0.  1.
<mgrwt>
<rscale>  0 0.97604362E+02</rscale>
<asrwt>0</asrwt>
<pdfrwt beam="1">  1        1 0.64449977E-01 0.97869842E+02</pdfrwt>
<pdfrwt beam="2">  1       -1 0.55197905E-02 0.97869842E+02</pdfrwt>
<totfact> 0.80537247E+03</totfact>
</mgrwt>
</event>
<event>
 8    1  0.6836165E-004  0.1208289E+03  0.7546771E-02  0.1241876E+00
          3   -1    0    0  501    0  0.00000000000E+00  0.00000000000E+00  0.96356923556E+03  0.96356923556E+03  0.00000000000E+00 0. -1.
         -3   -1    0    0    0  501 -0.00000000000E+00 -0.00000000000E+00 -0.10419324304E+03  0.10419324304E+03  0.00000000000E+00 0.  1.
         23    2    1    2    0    0  0.71424762566E+02  0.29503849668E+02 -0.63881350589E+02  0.13667640928E+03  0.92885090552E+02 0.  0.
         23    2    1    2    0    0 -0.71424762566E+02 -0.29503849668E+02  0.92325734311E+03  0.93108606932E+03  0.92440105059E+02 0.  0.
          5    1    3    3  502    0  0.14039455015E+02 -0.21667501619E+02  0.11723570784E+02  0.28742286539E+02  0.47000000000E+01 0. -1.
         -5    1    3    3    0  502  0.57385307551E+02  0.51171351287E+02 -0.75604921374E+02  0.10793412274E+03  0.47000000000E+01 0.  1.
          5    1    4    4  503    0 -0.49042957307E+02 -0.60696186592E+02  0.71559523461E+03  0.71985267140E+03  0.47000000000E+01 0. -1.
         -5    1    4    4    0  503 -0.22381805259E+02  0.31192336924E+02  0.20766210850E+03  0.21123339792E+03  0.47000000000E+01 0.  1.
<mgrwt>
<rscale>  0 0.12074334E+03</rscale>
<asrwt>0</asrwt>
<pdfrwt beam="1">  1        3 0.14824141E+00 0.12082886E+03</pdfrwt>
<pdfrwt beam="2">  1       -3 0.16029730E-01 0.12082886E+03</pdfrwt>
<totfact> 0.27631474E+01</totfact>
</mgrwt>
</event>
<event>
 7    1  0.6836165E-004  0.1520519E+03  0.7546771E-02  0.1213636E+00
         -3   -1    0    0    0  501 -0.00000000000E+00  0.00000000000E+00  0.18700705002E+03  0.18700705002E+03  0.00000000000E+00 0.  1.
          3   -1    0    0  501    0  0.00000000000E+00 -0.00000000000E+00 -0.99883609938E+02  0.99883609938E+02  0.00000000000E+00 0. -1.
         23    2    1    2    0    0 -0.32761637154E+02 -0.50881354038E+02  0.79654136809E+02  0.13465539863E+03  0.90139102568E+02 0.  0.
          5    1    1    2  502    0  0.73755425196E+02 -0.11500847367E+02  0.17381037561E+02  0.76787516581E+02  0.47000000000E+01 0. -1.
         -5    1    3    3    0  503 -0.36556160808E+01 -0.71994825834E+02  0.50813174999E+02  0.88321499247E+02  0.47000000000E+01 0.  1.
          5    1    3    3  503    0 -0.29106021073E+02  0.21113471795E+02  0.28840961810E+02  0.46333899384E+02  0.47000000000E+01 0. -1.
         -5    1    1    2    0  502 -0.40993788042E+02  0.62382201406E+02 -0.99117342907E+01  0.75447744743E+02  0.47000000000E+01 0.  1.
<mgrwt>
<rscale>  0 0.13977216E+03</rscale>
<asrwt>0</asrwt>
<pdfrwt beam="1">  1        3 0.15366709E-01 0.15205191E+03</pdfrwt>
<pdfrwt beam="2">  1       -3 0.28770315E-01 0.15205191E+03</pdfrwt>
<totfact> 0.96982521E+02</totfact>
</mgrwt>
</event>
<event>
 8    1  0.6836165E-004  0.1772997E+03  0.7546771E-02  0.1170512E+00
         -1   -1    0    0    0  501 -0.00000000000E+00  0.00000000000E+00  0.51055783640E+03  0.51055783640E+03  0.00000000000E+00 0.  1.
          1   -1    0    0  501    0  0.00000000000E+00 -0.00000000000E+00 -0.68256200789E+02  0.68256200789E+02  0.00000000000E+00 0. -1.
         23    2    1    2    0    0 -0.11122180415E+02  0.15093398497E+03  0.12975648247E+03  0.21948179016E+03  0.91819065285E+02 0.  0.
         23    2    1    2    0    0  0.11122180415E+02 -0.15093398497E+03  0.31254515314E+03  0.35933224703E+03  0.92360274417E+02 0.  0.
          5    1    4    4  502    0  0.48445309714E+02 -0.69289585149E+02  0.18313522078E+03  0.20176370768E+03  0.47000000000E+01 0. -1.
         -5    1    4    4    0  502 -0.37323129299E+02 -0.81644399822E+02  0.12940993235E+03  0.15756853935E+03  0.47000000000E+01 0.  1.
          5    1    3    3  503    0 -0.40888128437E+02  0.13635436227E+03  0.11423720288E+03  0.18258307610E+03  0.47000000000E+01 0. -1.
         -5    1    3    3    0  503  0.29765948022E+02  0.14579622700E+02  0.15519279596E+02  0.36898714055E+02  0.47000000000E+01 0.  1.
<mgrwt>
<rscale>  0 0.17722935E+03</rscale>
<asrwt>0</asrwt>
<pdfrwt beam="1">  1        1 0.10500954E-01 0.17729972E+03</pdfrwt>
<pdfrwt beam="2">  1       -1 0.78547357E-01 0.17729972E+03</pdfrwt>
<totfact> 0.10092399E+03</totfact>
</mgrwt>
</event>
<event>
 8    1  0.6836165E-004  0.1051446E+03  0.7546771E-02  0.1272657E+00
         -1   -1    0    0    0  501 -0.00000000000E+00  0.00000000000E+00  0.27139086747E+03  0.27139086747E+03  0.00000000000E+00 0.  1.
          1   -1    0    0  501    0  0.00000000000E+00 -0.00000000000E+00 -0.28773231874E+03  0.28773231874E+03  0.00000000000E+00 0. -1.
         23    2    1    2    0    0  0.14512159926E+02  0.38920289201E+02  0.25191828773E+03  0.27298022806E+03  0.96591870888E+02 0.  0.
         23    2    1    2    0    0 -0.14512159926E+02 -0.38920289201E+02 -0.26825973900E+03  0.28614295814E+03  0.90493719290E+02 0.  0.
          5    1    3    3  502    0 -0.21212645663E+02 -0.82585757147E+01  0.12661494666E+02  0.26468544653E+02  0.47000000000E+01 0. -1.
         -5    1    3    3    0  502  0.35724805589E+02  0.47178864916E+02  0.23925679306E+03  0.24651168341E+03  0.47000000000E+01 0.  1.
          5    1    4    4  503    0 -0.39854579905E+02 -0.65113597197E+01 -0.52269139196E+02  0.66218866323E+02  0.47000000000E+01 0. -1.
         -5    1    4    4    0  503  0.25342419979E+02 -0.32408929481E+02 -0.21599059980E+03  0.21992409182E+03  0.47000000000E+01 0.  1.
<mgrwt>
<rscale>  0 0.10372275E+03</rscale>
<asrwt>0</asrwt>
<pdfrwt beam="1">  1        1 0.44266511E-01 0.10514457E+03</pdfrwt>
<pdfrwt beam="2">  1       -1 0.41752441E-01 0.10514457E+03</pdfrwt>
<totfact> 0.53134873E+02</totfact>
</mgrwt>
</event>
<event>
 8    1  0.6836165E-004  0.1028628E+03  0.7546771E-02  0.1274563E+00
         -1   -1    0    0    0  501 -0.00000000000E+00  0.00000000000E+00  0.14022363456E+02  0.14022363456E+02  0.00000000000E+00 0.  1.
          1   -1    0    0  501    0  0.00000000000E+00 -0.00000000000E+00 -0.85565254662E+03  0.85565254662E+03  0.00000000000E+00 0. -1.
         23    2    1    2    0    0 -0.46262614496E+02  0.10137311618E+02 -0.57274543454E+03  0.58190900656E+03  0.91311360402E+02 0.  0.
         23    2    1    2    0    0  0.46262614496E+02 -0.10137311618E+02 -0.26888474862E+03  0.28776590352E+03  0.90924213493E+02 0.  0.
          5    1    3    3  502    0  0.32216677018E+01  0.39278172362E+02 -0.33202198866E+03  0.33438577260E+03  0.47000000000E+01 0. -1.
         -5    1    3    3    0  502 -0.49484282198E+02 -0.29140860744E+02 -0.24072344589E+03  0.24752323396E+03  0.47000000000E+01 0.  1.
          5    1    4    4  503    0  0.71955796422E+01 -0.39747912777E+02 -0.55690018910E+02  0.68957531443E+02  0.47000000000E+01 0. -1.
         -5    1    4    4    0  503  0.39067034854E+02  0.29610601159E+02 -0.21319472971E+03  0.21880837208E+03  0.47000000000E+01 0.  1.
<mgrwt>
<rscale>  0 0.10277683E+03</rscale>
<asrwt>0</asrwt>
<pdfrwt beam="1">  1        1 0.13163889E+00 0.10286282E+03</pdfrwt>
<pdfrwt beam="2">  1       -1 0.21572861E-02 0.10286282E+03</pdfrwt>
<totfact> 0.11953206E+04</totfact>
</mgrwt>
</event>
<event>
 7    1  0.6836165E-004  0.2332447E+03  0.7546771E-02  0.1151301E+00
          3   -1    0    0  501    0  0.00000000000E+00  0.00000000000E+00  0.33610890026E+03  0.33610890026E+03  0.00000000000E+00 0. -1.
         -3   -1    0    0    0  501 -0.00000000000E+00 -0.00000000000E+00 -0.24437851494E+03  0.24437851494E+03  0.00000000000E+00 0.  1.
         23    2    1    2    0    0  0.77857256739E+02 -0.21111917651E+02 -0.18326922393E+03  0.21989365599E+03  0.90874341879E+02 0.  0.
          5    1    3    3  502    0  0.55513815387E+02 -0.47889015337E+02 -0.70727234184E+02  0.10197829742E+03  0.47000000000E+01 0. -1.
         -5    1    3    3    0  502  0.22343441352E+02  0.26777097685E+02 -0.11254198975E+03  0.11791535858E+03  0.47000000000E+01 0.  1.
          5    1    1    2  503    0 -0.13878258287E+03 -0.31335592645E+02  0.22357143316E+03  0.26504490261E+03  0.47000000000E+01 0. -1.
         -5    1    1    2    0  503  0.60925326130E+02  0.52447510297E+02  0.51428176098E+02  0.95548856598E+02  0.47000000000E+01 0.  1.
<mgrwt>
<rscale>  0 0.19815965E+03</rscale>
<asrwt>0</asrwt>
<pdfrwt beam="1">  1        3 0.51709062E-01 0.23324467E+03</pdfrwt>
<pdfrwt beam="2">  1       -3 0.37596695E-01 0.23324467E+03</pdfrwt>
<totfact> 0.64640435E+01</totfact>
</mgrwt>
</event>
<event>
 8    1  0.6836165E-004  0.9419560E+02  0.7546771E-02  0.1293472E+00
         -1   -1    0    0    0  501 -0.00000000000E+00  0.00000000000E+00  0.68170315211E+02  0.68170315211E+02  0.00000000000E+00 0.  1.
          1   -1    0    0  501    0  0.00000000000E+00 -0.00000000000E+00 -0.13171181117E+03  0.13171181117E+03  0.00000000000E+00 0. -1.
         23    2    1    2    0    0 -0.17471449767E+02 -0.19503096337E+02 -0.46210962660E+02  0.10492027945E+03  0.90483090383E+02 0.  0.
         23    2    1    2    0    0  0.17471449767E+02  0.19503096337E+02 -0.17330533295E+02  0.94961846932E+02  0.89620213482E+02 0.  0.
          5    1    4    4  502    0  0.44494898872E+02 -0.19900363537E+01 -0.34099027946E+02  0.56290229856E+02  0.47000000000E+01 0. -1.
         -5    1    3    3    0  503 -0.18850756995E+02 -0.54317400489E+02 -0.37149222767E+02  0.68614034915E+02  0.47000000000E+01 0.  1.
          5    1    3    3  503    0  0.13793072276E+01  0.34814304152E+02 -0.90617398928E+01  0.36306244530E+02  0.47000000000E+01 0. -1.
         -5    1    4    4    0  502 -0.27023449105E+02  0.21493132691E+02  0.16768494650E+02  0.38671617076E+02  0.47000000000E+01 0.  1.
<mgrwt>
<rscale>  0 0.93987778E+02</rscale>
<asrwt>0</asrwt>
<pdfrwt beam="1">  1        1 0.20263355E-01 0.94195605E+02</pdfrwt>
<pdfrwt beam="2">  1       -1 0.10487741E-01 0.94195605E+02</pdfrwt>
<totfact> 0.12839589E+04</totfact>
</mgrwt>
</event>
<event>
 8    1  0.6836165E-004  0.9444291E+02  0.7546771E-02  0.1292920E+00
         -1   -1    0    0    0  501 -0.00000000000E+00  0.00000000000E+00  0.35534989739E+03  0.35534989739E+03  0.00000000000E+00 0.  1.
          1   -1    0    0  501    0  0.00000000000E+00 -0.00000000000E+00 -0.43856102235E+02  0.43856102235E+02  0.00000000000E+00 0. -1.
         23    2    1    2    0    0 -0.51000962026E+01 -0.30748250785E+02  0.24035106552E+02  0.96630453909E+02  0.88251302359E+02 0.  0.
         23    2    1    2    0    0  0.51000962026E+01  0.30748250785E+02  0.28745868861E+03  0.30257554572E+03  0.89151541234E+02 0.  0.
          5    1    3    3  502    0  0.16291349280E+02 -0.42130259293E+02 -0.17208405389E+02  0.48565275923E+02  0.47000000000E+01 0. -1.
         -5    1    3    3    0  502 -0.21391445483E+02  0.11382008508E+02  0.41243511941E+02  0.48065177985E+02  0.47000000000E+01 0.  1.
          5    1    4    4  503    0  0.39293017675E+02  0.22408184269E+02  0.79338869240E+02  0.91448423347E+02  0.47000000000E+01 0. -1.
         -5    1    4    4    0  503 -0.34192921473E+02  0.83400665157E+01  0.20811981937E+03  0.21112712237E+03  0.47000000000E+01 0.  1.
<mgrwt>
<rscale>  0 0.94229858E+02</rscale>
<asrwt>0</asrwt>
<pdfrwt beam="1">  1        1 0.67470929E-02 0.94442910E+02</pdfrwt>
<pdfrwt beam="2">  1       -1 0.54669213E-01 0.94442910E+02</pdfrwt>
<totfact> 0.35799528E+03</totfact>
</mgrwt>
</event>
<event>
 8    1  0.1154184E-003  0.9809313E+02  0.7546771E-02  0.1294946E+00
         -1   -1    0    0    0  501 -0.00000000000E+00  0.00000000000E+00  0.87718537785E+02  0.87718537785E+02  0.00000000000E+00 0.  1.
          1   -1    0    0  501    0  0.00000000000E+00 -0.00000000000E+00 -0.26009359703E+03  0.26009359703E+03  0.00000000000E+00 0. -1.
         23    2    1    2    0    0  0.88774937808E+01  0.28499575717E+02 -0.22325844417E+03  0.23730702026E+03  0.74694399120E+02 0.  0.
         23    2    1    2    0    0 -0.88774937808E+01 -0.28499575717E+02  0.50883384928E+02  0.11050511455E+03  0.93441028292E+02 0.  0.
          5    1    4    4  502    0  0.20440232065E+02  0.17834422754E+02  0.48077475408E+02  0.55402196377E+02  0.47000000000E+01 0. -1.
         -5    1    3    3    0  503 -0.19721027886E+02  0.35450164308E+02 -0.68864569721E+02  0.80062800683E+02  0.47000000000E+01 0.  1.
          5    1    3    3  503    0  0.28598521667E+02 -0.69505885902E+01 -0.15439387445E+03  0.15724421958E+03  0.47000000000E+01 0. -1.
         -5    1    4    4    0  502 -0.29317725846E+02 -0.46333998471E+02  0.28059095207E+01  0.55102918174E+02  0.47000000000E+01 0.  1.
<mgrwt>
<rscale>  0 0.93345716E+02</rscale>
<asrwt>0</asrwt>
<pdfrwt beam="1">  1        1 0.40014399E-01 0.98093127E+02</pdfrwt>
<pdfrwt beam="2">  1       -1 0.13495160E-01 0.98093127E+02</pdfrwt>
<totfact> 0.37801493E+03</totfact>
</mgrwt>
</event>
<event>
 8    1  0.6836165E-004  0.1028481E+03  0.7546771E-02  0.1276792E+00
         -2   -1    0    0    0  501 -0.00000000000E+00  0.00000000000E+00  0.32207125931E+02  0.32207125931E+02  0.00000000000E+00 0.  1.
          2   -1    0    0  501    0  0.00000000000E+00 -0.00000000000E+00 -0.33432758949E+03  0.33432758949E+03  0.00000000000E+00 0. -1.
         23    2    1    2    0    0 -0.37361732646E+02 -0.27580223758E+02 -0.19948309740E+03  0.22443538200E+03  0.91766915261E+02 0.  0.
         23    2    1    2    0    0  0.37361732646E+02  0.27580223758E+02 -0.10263736616E+03  0.14209933342E+03  0.86609605805E+02 0.  0.
          5    1    3    3  502    0 -0.23049867317E+02 -0.57237149095E+02 -0.16634319522E+03  0.17748108693E+03  0.47000000000E+01 0. -1.
         -5    1    4    4    0  503  0.58055577260E+02  0.38312768177E+02 -0.54796052829E+02  0.88673646942E+02  0.47000000000E+01 0.  1.
          5    1    4    4  503    0 -0.20693844614E+02 -0.10732544419E+02 -0.47841313327E+02  0.53425686476E+02  0.47000000000E+01 0. -1.
         -5    1    3    3    0  502 -0.14311865329E+02  0.29656925337E+02 -0.33139902181E+02  0.46954295077E+02  0.47000000000E+01 0.  1.
<mgrwt>
<rscale>  0 0.10168502E+03</rscale>
<asrwt>0</asrwt>
<pdfrwt beam="1">  1        2 0.51435015E-01 0.10284811E+03</pdfrwt>
<pdfrwt beam="2">  1       -2 0.49549423E-02 0.10284811E+03</pdfrwt>
<totfact> 0.17622712E+04</totfact>
</mgrwt>
</event>
<event>
 8    1  0.6836165E-004  0.9849908E+02  0.7546771E-02  0.1287084E+00
          3   -1    0    0  501    0  0.00000000000E+00  0.00000000000E+00  0.61218163062E+02  0.61218163062E+02  0.00000000000E+00 0. -1.
         -3   -1    0    0    0  501 -0.00000000000E+00 -0.00000000000E+00 -0.38200576599E+03  0.38200576599E+03  0.00000000000E+00 0.  1.
         23    2    1    2    0    0  0.16508062433E+02  0.10994623113E+02  0.15038668637E+02  0.93250568911E+02  0.89867175238E+02 0.  0.
         23    2    1    2    0    0 -0.16508062433E+02 -0.10994623113E+02 -0.33582627157E+03  0.34997336014E+03  0.96481450405E+02 0.  0.
          5    1    4    4  502    0 -0.51042487961E+02 -0.17941940214E+02 -0.12669482513E+03  0.13784381564E+03  0.47000000000E+01 0. -1.
         -5    1    4    4    0  502  0.34534425528E+02  0.69473171013E+01 -0.20913144643E+03  0.21212954450E+03  0.47000000000E+01 0.  1.
          5    1    3    3  503    0 -0.16733376934E+02  0.42545480100E+02  0.75664479430E+01  0.46577515123E+02  0.47000000000E+01 0. -1.
         -5    1    3    3    0  503  0.33241439367E+02 -0.31550856987E+02  0.74722206943E+01  0.46673053788E+02  0.47000000000E+01 0.  1.
<mgrwt>
<rscale>  0 0.96840358E+02</rscale>
<asrwt>0</asrwt>
<pdfrwt beam="1">  1        3 0.94181789E-02 0.98499077E+02</pdfrwt>
<pdfrwt beam="2">  1       -3 0.58770118E-01 0.98499077E+02</pdfrwt>
<totfact> 0.51658170E+02</totfact>
</mgrwt>
</event>
<event>
 8    1  0.6836165E-004  0.9515679E+02  0.7546771E-02  0.1291555E+00
          1   -1    0    0  501    0  0.00000000000E+00  0.00000000000E+00  0.19344627421E+03  0.19344627421E+03  0.00000000000E+00 0. -1.
         -1   -1    0    0    0  501 -0.00000000000E+00 -0.00000000000E+00 -0.52492355532E+02  0.52492355532E+02  0.00000000000E+00 0.  1.
         23    2    1    2    0    0 -0.23033821739E+02  0.97047208598E-01  0.27392653583E+02  0.97780014594E+02  0.90994546109E+02 0.  0.
         23    2    1    2    0    0  0.23033821739E+02 -0.97047208598E-01  0.11356126509E+03  0.14815861515E+03  0.92326853898E+02 0.  0.
          5    1    4    4  502    0  0.49633255176E+02 -0.20781315225E+02  0.95309505919E+02  0.10955051346E+03  0.47000000000E+01 0. -1.
         -5    1    4    4    0  502 -0.26599433438E+02  0.20684268017E+02  0.18251759175E+02  0.38608101683E+02  0.47000000000E+01 0.  1.
          5    1    3    3  503    0 -0.29475809028E+02 -0.30439319630E+02  0.44712737152E+02  0.61779400782E+02  0.47000000000E+01 0. -1.
         -5    1    3    3    0  503  0.64419872891E+01  0.30536366839E+02 -0.17320083569E+02  0.36000613811E+02  0.47000000000E+01 0.  1.
<mgrwt>
<rscale>  0 0.94832097E+02</rscale>
<asrwt>0</asrwt>
<pdfrwt beam="1">  1        1 0.29760965E-01 0.95156788E+02</pdfrwt>
<pdfrwt beam="2">  1       -1 0.80757471E-02 0.95156788E+02</pdfrwt>
<totfact> 0.11812669E+04</totfact>
</mgrwt>
</event>
<event>
 8    1  0.6836165E-004  0.9537202E+02  0.7546771E-02  0.1290390E+00
         -1   -1    0    0    0  501 -0.00000000000E+00  0.00000000000E+00  0.81646181411E+02  0.81646181411E+02  0.00000000000E+00 0.  1.
          1   -1    0    0  501    0  0.00000000000E+00 -0.00000000000E+00 -0.11598691412E+03  0.11598691412E+03  0.00000000000E+00 0. -1.
         23    2    1    2    0    0  0.26862766986E+02 -0.15008926153E+01 -0.37021467506E+02  0.10222340663E+03  0.91406645694E+02 0.  0.
         23    2    1    2    0    0 -0.26862766986E+02  0.15008926153E+01  0.26807347996E+01  0.95409688902E+02  0.91498423312E+02 0.  0.
          5    1    3    3  502    0  0.33790459264E+02  0.22940026986E+02 -0.56495918844E+02  0.69870729361E+02  0.47000000000E+01 0. -1.
         -5    1    3    3    0  502 -0.69276922782E+01 -0.24440919602E+02  0.19474451338E+02  0.32352677265E+02  0.47000000000E+01 0.  1.
          5    1    4    4  503    0  0.19527294390E+02  0.21207702078E+02  0.26523540033E+02  0.39454657894E+02  0.47000000000E+01 0. -1.
         -5    1    4    4    0  503 -0.46390061377E+02 -0.19706809463E+02 -0.23842805234E+02  0.55955031008E+02  0.47000000000E+01 0.  1.
<mgrwt>
<rscale>  0 0.95350002E+02</rscale>
<asrwt>0</asrwt>
<pdfrwt beam="1">  1        1 0.17844141E-01 0.95372021E+02</pdfrwt>
<pdfrwt beam="2">  1       -1 0.12560951E-01 0.95372021E+02</pdfrwt>
<totfact> 0.11463467E+04</totfact>
</mgrwt>
</event>
<event>
 8    1  0.6836165E-004  0.9256001E+02  0.7546771E-02  0.1296937E+00
          1   -1    0    0  501    0  0.00000000000E+00  0.00000000000E+00  0.56805979364E+03  0.56805979364E+03  0.00000000000E+00 0. -1.
         -1   -1    0    0    0  501 -0.00000000000E+00 -0.00000000000E+00 -0.78588955546E+02  0.78588955546E+02  0.00000000000E+00 0.  1.
         23    2    1    2    0    0 -0.45965494639E+01  0.14190376289E+02 -0.46094666778E+02  0.10314367556E+03  0.91057149401E+02 0.  0.
         23    2    1    2    0    0  0.45965494639E+01 -0.14190376289E+02  0.53556550487E+03  0.54350507362E+03  0.91350205245E+02 0.  0.
          5    1    4    4  502    0 -0.36174415066E+02  0.96205806819E+01  0.34768739840E+03  0.34972812424E+03  0.47000000000E+01 0. -1.
         -5    1    3    3    0  503 -0.28164330722E+02 -0.23793584464E+02 -0.44754582425E+02  0.58175826893E+02  0.47000000000E+01 0.  1.
          5    1    3    3  503    0  0.23567781258E+02  0.37983960753E+02 -0.13400843531E+01  0.44967848670E+02  0.47000000000E+01 0. -1.
         -5    1    4    4    0  502  0.40770964530E+02 -0.23810956971E+02  0.18787810647E+03  0.19377694938E+03  0.47000000000E+01 0.  1.
<mgrwt>
<rscale>  0 0.92487620E+02</rscale>
<asrwt>0</asrwt>
<pdfrwt beam="1">  1        1 0.87393812E-01 0.92560008E+02</pdfrwt>
<pdfrwt beam="2">  1       -1 0.12090609E-01 0.92560008E+02</pdfrwt>
<totfact> 0.16797531E+03</totfact>
</mgrwt>
</event>
<event>
 8    1  0.6836165E-004  0.9905487E+02  0.7546771E-02  0.1282896E+00
          1   -1    0    0  501    0  0.00000000000E+00  0.00000000000E+00  0.25744292729E+02  0.25744292729E+02  0.00000000000E+00 0. -1.
         -1   -1    0    0    0  501 -0.00000000000E+00 -0.00000000000E+00 -0.41267760976E+03  0.41267760976E+03  0.00000000000E+00 0.  1.
         23    2    1    2    0    0  0.29603687214E+02  0.21734475371E+02 -0.25907645280E+03  0.27736704258E+03  0.91995120518E+02 0.  0.
         23    2    1    2    0    0 -0.29603687214E+02 -0.21734475371E+02 -0.12785686423E+03  0.16105485991E+03  0.90788349760E+02 0.  0.
          5    1    4    4  502    0 -0.86528801222E+01 -0.41851783926E+02 -0.16789905256E+02  0.46156636259E+02  0.47000000000E+01 0. -1.
         -5    1    3    3    0  503  0.52046676816E+02  0.21769662585E+02 -0.24263503711E+03  0.24915181318E+03  0.47000000000E+01 0.  1.
          5    1    3    3  503    0 -0.22442989602E+02 -0.35187214089E-01 -0.16441415690E+02  0.28215229404E+02  0.47000000000E+01 0. -1.
         -5    1    4    4    0  502 -0.20950807092E+02  0.20117308556E+02 -0.11106695898E+03  0.11489822365E+03  0.47000000000E+01 0.  1.
<mgrwt>
<rscale>  0 0.98773743E+02</rscale>
<asrwt>0</asrwt>
<pdfrwt beam="1">  1        1 0.39606605E-02 0.99054873E+02</pdfrwt>
<pdfrwt beam="2">  1       -1 0.63488861E-01 0.99054873E+02</pdfrwt>
<totfact> 0.55745105E+03</totfact>
</mgrwt>
</event>
<event>
 8    1  0.6836165E-004  0.1104796E+03  0.7546771E-02  0.1260207E+00
          4   -1    0    0  501    0  0.00000000000E+00  0.00000000000E+00  0.24642896711E+02  0.24642896711E+02  0.00000000000E+00 0. -1.
         -4   -1    0    0    0  501 -0.00000000000E+00 -0.00000000000E+00 -0.65491356801E+03  0.65491356801E+03  0.00000000000E+00 0.  1.
         23    2    1    2    0    0 -0.56335935547E+02  0.27550323954E+02 -0.48429279092E+03  0.49648467303E+03  0.89581053991E+02 0.  0.
         23    2    1    2    0    0  0.56335935547E+02 -0.27550323954E+02 -0.14597788039E+03  0.18307179170E+03  0.90955930917E+02 0.  0.
          5    1    4    4  502    0  0.20452982566E+02 -0.39832901317E+02 -0.16304978038E+02  0.47884515577E+02  0.47000000000E+01 0. -1.
         -5    1    4    4    0  502  0.35882952981E+02  0.12282577364E+02 -0.12967290235E+03  0.13518727612E+03  0.47000000000E+01 0.  1.
          5    1    3    3  503    0 -0.13318490780E+02 -0.32391585443E+02 -0.16584488044E+03  0.16956771913E+03  0.47000000000E+01 0. -1.
         -5    1    3    3    0  503 -0.43017444767E+02  0.59941909397E+02 -0.31844791048E+03  0.32691695390E+03  0.47000000000E+01 0.  1.
<mgrwt>
<rscale>  0 0.11019622E+03</rscale>
<asrwt>0</asrwt>
<pdfrwt beam="1">  1        4 0.37912151E-02 0.11047959E+03</pdfrwt>
<pdfrwt beam="2">  1       -4 0.10075593E+00 0.11047959E+03</pdfrwt>
<totfact> 0.49907883E+02</totfact>
</mgrwt>
</event>
<event>
 8    1  0.6836165E-004  0.9542436E+02  0.7546771E-02  0.1290327E+00
          2   -1    0    0  501    0  0.00000000000E+00  0.00000000000E+00  0.10912451230E+03  0.10912451230E+03  0.00000000000E+00 0. -1.
         -2   -1    0    0    0  501 -0.00000000000E+00 -0.00000000000E+00 -0.92282950113E+02  0.92282950113E+02  0.00000000000E+00 0.  1.
         23    2    1    2    0    0 -0.26473007314E+02 -0.54929842560E+01 -0.23023072806E+02  0.98162469890E+02  0.91514018714E+02 0.  0.
         23    2    1    2    0    0  0.26473007314E+02  0.54929842560E+01  0.39864634996E+02  0.10324499253E+03  0.91320021715E+02 0.  0.
          5    1    3    3  502    0 -0.38872982001E+02 -0.41234616729E+02 -0.18368818919E+02  0.59757056947E+02  0.47000000000E+01 0. -1.
         -5    1    4    4    0  503  0.23340989977E+02  0.46658297076E+02  0.13706130080E+02  0.54145604632E+02  0.47000000000E+01 0.  1.
          5    1    4    4  503    0  0.31320173371E+01 -0.41165312820E+02  0.26158504916E+02  0.49099387894E+02  0.47000000000E+01 0. -1.
         -5    1    3    3    0  502  0.12399974687E+02  0.35741632473E+02 -0.46542538871E+01  0.38405412943E+02  0.47000000000E+01 0.  1.
<mgrwt>
<rscale>  0 0.95377819E+02</rscale>
<asrwt>0</asrwt>
<pdfrwt beam="1">  1        2 0.16788386E-01 0.95424361E+02</pdfrwt>
<pdfrwt beam="2">  1       -2 0.14197377E-01 0.95424361E+02</pdfrwt>
<totfact> 0.11594502E+04</totfact>
</mgrwt>
</event>
<event>
 8    1  0.6836165E-004  0.1133235E+03  0.7546771E-02  0.1254873E+00
         -1   -1    0    0    0  501 -0.00000000000E+00  0.00000000000E+00  0.47712144583E+02  0.47712144583E+02  0.00000000000E+00 0.  1.
          1   -1    0    0  501    0  0.00000000000E+00 -0.00000000000E+00 -0.29098025298E+03  0.29098025298E+03  0.00000000000E+00 0. -1.
         23    2    1    2    0    0 -0.37332362017E+02  0.55070179522E+02 -0.16949551317E+03  0.20347183564E+03  0.90805445799E+02 0.  0.
         23    2    1    2    0    0  0.37332362017E+02 -0.55070179522E+02 -0.73772595229E+02  0.13522056193E+03  0.91737531223E+02 0.  0.
          5    1    4    4  502    0  0.31783765924E+02  0.98776268664E+01 -0.59482292349E+02  0.68322824824E+02  0.47000000000E+01 0. -1.
         -5    1    4    4    0  502  0.55485960931E+01 -0.64947806389E+02 -0.14290302880E+02  0.66897737104E+02  0.47000000000E+01 0.  1.
          5    1    3    3  503    0 -0.18454901984E+02 -0.15395270456E+02 -0.72831885046E+01  0.25548631948E+02  0.47000000000E+01 0. -1.
         -5    1    3    3    0  503 -0.18877460032E+02  0.70465449978E+02 -0.16221232467E+03  0.17792320369E+03  0.47000000000E+01 0.  1.
<mgrwt>
<rscale>  0 0.11313468E+03</rscale>
<asrwt>0</asrwt>
<pdfrwt beam="1">  1        1 0.44766193E-01 0.11332345E+03</pdfrwt>
<pdfrwt beam="2">  1       -1 0.73403299E-02 0.11332345E+03</pdfrwt>
<totfact> 0.83773885E+03</totfact>
</mgrwt>
</event>
<event>
 8    1  0.6836165E-004  0.1520882E+03  0.7546771E-02  0.1198164E+00
          2   -1    0    0  501    0  0.00000000000E+00  0.00000000000E+00  0.22565181577E+03  0.22565181577E+03  0.00000000000E+00 0. -1.
         -2   -1    0    0    0  501 -0.00000000000E+00 -0.00000000000E+00 -0.10817659832E+03  0.10817659832E+03  0.00000000000E+00 0.  1.
         23    2    1    2    0    0  0.73546035262E+02 -0.96501470027E+02  0.18950269158E+02  0.15326422916E+03  0.91702007717E+02 0.  0.
         23    2    1    2    0    0 -0.73546035262E+02  0.96501470027E+02  0.98524948290E+02  0.18056418493E+03  0.90414083101E+02 0.  0.
          5    1    4    4  502    0 -0.43549788040E+02  0.42862725200E+00  0.56259268758E+02  0.71301914987E+02  0.47000000000E+01 0. -1.
         -5    1    4    4    0  502 -0.29996247223E+02  0.96072842775E+02  0.42265679531E+02  0.10926226994E+03  0.47000000000E+01 0.  1.
          5    1    3    3  503    0 -0.31256459230E+01 -0.70878128438E+02  0.96990168462E+01  0.71760989967E+02  0.47000000000E+01 0. -1.
         -5    1    3    3    0  503  0.76671681185E+02 -0.25623341589E+02  0.92512523122E+01  0.81503239195E+02  0.47000000000E+01 0.  1.
<mgrwt>
<rscale>  0 0.15189453E+03</rscale>
<asrwt>0</asrwt>
<pdfrwt beam="1">  1        2 0.34715664E-01 0.15208817E+03</pdfrwt>
<pdfrwt beam="2">  1       -2 0.16642554E-01 0.15208817E+03</pdfrwt>
<totfact> 0.41483579E+03</totfact>
</mgrwt>
</event>
<event>
 8    1  0.6836165E-004  0.9686710E+02  0.7546771E-02  0.1288353E+00
         -3   -1    0    0    0  501 -0.00000000000E+00  0.00000000000E+00  0.47233951437E+03  0.47233951437E+03  0.00000000000E+00 0.  1.
          3   -1    0    0  501    0  0.00000000000E+00 -0.00000000000E+00 -0.29040103405E+02  0.29040103405E+02  0.00000000000E+00 0. -1.
         23    2    1    2    0    0 -0.20965056255E+02 -0.21405633967E+02  0.36808513907E+03  0.38061779260E+03  0.92116772039E+02 0.  0.
         23    2    1    2    0    0  0.20965056255E+02  0.21405633967E+02  0.75214271895E+02  0.12076182517E+03  0.89601880412E+02 0.  0.
          5    1    3    3  502    0  0.20213187463E+02  0.15132981975E+01  0.18510226138E+02  0.27849263734E+02  0.47000000000E+01 0. -1.
         -5    1    4    4    0  503  0.14151330081E+02  0.51627392483E+02  0.20121392881E+02  0.57381253464E+02  0.47000000000E+01 0.  1.
          5    1    4    4  503    0  0.68137261734E+01 -0.30221758516E+02  0.55092879014E+02  0.63380571710E+02  0.47000000000E+01 0. -1.
         -5    1    3    3    0  502 -0.41178243718E+02 -0.22918932164E+02  0.34957491293E+03  0.35276852886E+03  0.47000000000E+01 0.  1.
<mgrwt>
<rscale>  0 0.96264405E+02</rscale>
<asrwt>0</asrwt>
<pdfrwt beam="1">  1        3 0.44677086E-02 0.96867097E+02</pdfrwt>
<pdfrwt beam="2">  1       -3 0.72667612E-01 0.96867097E+02</pdfrwt>
<totfact> 0.10886052E+03</totfact>
</mgrwt>
</event>
<event>
 8    1  0.6836165E-004  0.1018767E+03  0.7546771E-02  0.1278733E+00
          1   -1    0    0  501    0  0.00000000000E+00  0.00000000000E+00  0.29236260886E+02  0.29236260886E+02  0.00000000000E+00 0. -1.
         -1   -1    0    0    0  501 -0.00000000000E+00 -0.00000000000E+00 -0.35350446576E+03  0.35350446576E+03  0.00000000000E+00 0.  1.
         23    2    1    2    0    0 -0.35450471963E+02  0.27828434030E+02 -0.19649636584E+03  0.21932562372E+03  0.86381420056E+02 0.  0.
         23    2    1    2    0    0  0.35450471963E+02 -0.27828434030E+02 -0.12777183903E+03  0.16341510292E+03  0.91365722839E+02 0.  0.
          5    1    3    3  502    0  0.26758755424E+02  0.44354012919E+00 -0.78524891579E+02  0.83093178524E+02  0.47000000000E+01 0. -1.
         -5    1    3    3    0  502 -0.62209227387E+02  0.27384893901E+02 -0.11797147426E+03  0.13623244520E+03  0.47000000000E+01 0.  1.
          5    1    4    4  503    0  0.11499496941E+02 -0.49700439541E+02 -0.27965596657E+02  0.58365543918E+02  0.47000000000E+01 0. -1.
         -5    1    4    4    0  503  0.23950975022E+02  0.21872005511E+02 -0.99806242376E+02  0.10504955900E+03  0.47000000000E+01 0.  1.
<mgrwt>
<rscale>  0 0.10074672E+03</rscale>
<asrwt>0</asrwt>
<pdfrwt beam="1">  1        1 0.44978862E-02 0.10187666E+03</pdfrwt>
<pdfrwt beam="2">  1       -1 0.54385304E-01 0.10187666E+03</pdfrwt>
<totfact> 0.62818432E+03</totfact>
</mgrwt>
</event>
<event>
 8    1  0.6836165E-004  0.9956402E+02  0.7546771E-02  0.1282504E+00
         -1   -1    0    0    0  501 -0.00000000000E+00  0.00000000000E+00  0.22718510063E+02  0.22718510063E+02  0.00000000000E+00 0.  1.
          1   -1    0    0  501    0  0.00000000000E+00 -0.00000000000E+00 -0.43687707088E+03  0.43687707088E+03  0.00000000000E+00 0. -1.
         23    2    1    2    0    0 -0.24457157628E+02 -0.25586030227E+02 -0.24109625412E+03  0.25993698331E+03  0.90482230516E+02 0.  0.
         23    2    1    2    0    0  0.24457157628E+02  0.25586030227E+02 -0.17306230670E+03  0.19965859763E+03  0.93060174662E+02 0.  0.
          5    1    4    4  502    0  0.50134913340E+01  0.45222948360E+02 -0.16390700731E+03  0.17017005376E+03  0.47000000000E+01 0. -1.
         -5    1    3    3    0  503 -0.20931717291E+02 -0.47639553188E+02 -0.70122354689E+02  0.87446546208E+02  0.47000000000E+01 0.  1.
          5    1    3    3  503    0 -0.35254403378E+01  0.22053522960E+02 -0.17097389943E+03  0.17249043710E+03  0.47000000000E+01 0. -1.
         -5    1    4    4    0  502  0.19443666294E+02 -0.19636918133E+02 -0.91552993902E+01  0.29488543871E+02  0.47000000000E+01 0.  1.
<mgrwt>
<rscale>  0 0.98957187E+02</rscale>
<asrwt>0</asrwt>
<pdfrwt beam="1">  1        1 0.67211864E-01 0.99564018E+02</pdfrwt>
<pdfrwt beam="2">  1       -1 0.34951551E-02 0.99564018E+02</pdfrwt>
<totfact> 0.14912198E+04</totfact>
</mgrwt>
</event>
<event>
 8    1  0.6836165E-004  0.1013028E+03  0.7546771E-02  0.1278022E+00
         -1   -1    0    0    0  501 -0.00000000000E+00  0.00000000000E+00  0.14869324479E+03  0.14869324479E+03  0.00000000000E+00 0.  1.
          1   -1    0    0  501    0  0.00000000000E+00 -0.00000000000E+00 -0.81025695647E+02  0.81025695647E+02  0.00000000000E+00 0. -1.
         23    2    1    2    0    0 -0.27764181168E+02 -0.20602272040E+02 -0.11559732004E+02  0.10111405385E+03  0.94313949727E+02 0.  0.
         23    2    1    2    0    0  0.27764181168E+02  0.20602272040E+02  0.79227281147E+02  0.12860488659E+03  0.95220540886E+02 0.  0.
          5    1    4    4  502    0  0.34664833032E+02  0.55385876051E+02  0.52545919072E+02  0.83978625412E+02  0.47000000000E+01 0.  1.
         -5    1    3    3    0  503  0.33726544911E+02 -0.11585862960E+02  0.57573152999E+01  0.36427307499E+02  0.47000000000E+01 0.  1.
          5    1    3    3  503    0 -0.61490726079E+02 -0.90164090808E+01 -0.17317047304E+02  0.64686746353E+02  0.47000000000E+01 0. -1.
         -5    1    4    4    0  502 -0.69006518644E+01 -0.34783604010E+02  0.26681362075E+02  0.44626261173E+02  0.47000000000E+01 0. -1.
<mgrwt>
<rscale>  0 0.10108919E+03</rscale>
<asrwt>0</asrwt>
<pdfrwt beam="1">  1        1 0.12465492E-01 0.10130279E+03</pdfrwt>
<pdfrwt beam="2">  1       -1 0.22875884E-01 0.10130279E+03</pdfrwt>
<totfact> 0.71206125E+03</totfact>
</mgrwt>
</event>
<event>
 8    1  0.6836165E-004  0.1060069E+03  0.7546771E-02  0.1268873E+00
          1   -1    0    0  501    0  0.00000000000E+00  0.00000000000E+00  0.33462070606E+02  0.33462070606E+02  0.00000000000E+00 0. -1.
         -1   -1    0    0    0  501 -0.00000000000E+00 -0.00000000000E+00 -0.54399097270E+03  0.54399097270E+03  0.00000000000E+00 0.  1.
         23    2    1    2    0    0  0.14312685989E+00  0.46228844809E+02 -0.43476737431E+03  0.44715614456E+03  0.93748713459E+02 0.  0.
         23    2    1    2    0    0 -0.14312685989E+00 -0.46228844809E+02 -0.75761527786E+02  0.13029689875E+03  0.95395734461E+02 0.  0.
          5    1    4    4  502    0 -0.34372744063E+02 -0.57925890834E+02 -0.60835279004E+02  0.90884077456E+02  0.47000000000E+01 0. -1.
         -5    1    4    4    0  502  0.34229617203E+02  0.11697046025E+02 -0.14926248782E+02  0.39412821293E+02  0.47000000000E+01 0.  1.
          5    1    3    3  503    0  0.21960962163E+02 -0.47217298963E+01 -0.26242114443E+02  0.34861399323E+02  0.47000000000E+01 0. -1.
         -5    1    3    3    0  503 -0.21817835303E+02  0.50950574706E+02 -0.40852525986E+03  0.41229474523E+03  0.47000000000E+01 0.  1.
<mgrwt>
<rscale>  0 0.10563507E+03</rscale>
<asrwt>0</asrwt>
<pdfrwt beam="1">  1        1 0.51480109E-02 0.10600695E+03</pdfrwt>
<pdfrwt beam="2">  1       -1 0.83690919E-01 0.10600695E+03</pdfrwt>
<totfact> 0.22678558E+03</totfact>
</mgrwt>
</event>
<event>
 8    1  0.6836165E-004  0.9298459E+02  0.7546771E-02  0.1298694E+00
         -2   -1    0    0    0  501 -0.00000000000E+00  0.00000000000E+00  0.23687679398E+02  0.23687679398E+02  0.00000000000E+00 0.  1.
          2   -1    0    0  501    0  0.00000000000E+00 -0.00000000000E+00 -0.39670400623E+03  0.39670400623E+03  0.00000000000E+00 0. -1.
         23    2    1    2    0    0  0.10617126295E+02 -0.60562206182E+01 -0.25717843369E+03  0.27185027147E+03  0.87249195781E+02 0.  0.
         23    2    1    2    0    0 -0.10617126295E+02  0.60562206182E+01 -0.11583789315E+03  0.14854141416E+03  0.92177725365E+02 0.  0.
          5    1    4    4  502    0 -0.49615206691E+01 -0.35297183491E+02 -0.14359812926E+02  0.38714365254E+02  0.47000000000E+01 0. -1.
         -5    1    3    3    0  503  0.36221713597E+02  0.22804647963E+02 -0.84347664809E+02  0.94703131222E+02  0.47000000000E+01 0.  1.
          5    1    3    3  503    0 -0.25604587302E+02 -0.28860868581E+02 -0.17283076888E+03  0.17714714024E+03  0.47000000000E+01 0. -1.
         -5    1    4    4    0  502 -0.56556056261E+01  0.41353404109E+02 -0.10147808022E+03  0.10982704891E+03  0.47000000000E+01 0.  1.
<mgrwt>
<rscale>  0 0.91738938E+02</rscale>
<asrwt>0</asrwt>
<pdfrwt beam="1">  1        2 0.61031386E-01 0.92984591E+02</pdfrwt>
<pdfrwt beam="2">  1       -2 0.36442583E-02 0.92984591E+02</pdfrwt>
<totfact> 0.22944970E+04</totfact>
</mgrwt>
</event>
<event>
 7    1  0.6836165E-004  0.1976215E+03  0.7546771E-02  0.1161568E+00
         -1   -1    0    0    0  501 -0.00000000000E+00  0.00000000000E+00  0.57816466996E+02  0.57816466996E+02  0.00000000000E+00 0.  1.
          1   -1    0    0  501    0  0.00000000000E+00 -0.00000000000E+00 -0.10763459022E+04  0.10763459022E+04  0.00000000000E+00 0. -1.
         23    2    1    2    0    0  0.58703372332E+02  0.11473137266E+03 -0.87733115927E+03  0.89128134354E+03  0.89794746600E+02 0.  0.
          5    1    1    2  502    0 -0.30344977712E+02  0.98578663283E+01 -0.10522262794E+03  0.11005401688E+03  0.47000000000E+01 0. -1.
         -5    1    3    3    0  503  0.82195052164E+01  0.38860429254E+02 -0.87644090525E+02  0.96339347267E+02  0.47000000000E+01 0.  1.
          5    1    3    3  503    0  0.50483867116E+02  0.75870943402E+02 -0.78968706874E+03  0.79494199627E+03  0.47000000000E+01 0. -1.
         -5    1    1    2    0  502 -0.28358394620E+02 -0.12458923898E+03 -0.35975648014E+02  0.13282700880E+03  0.47000000000E+01 0.  1.
<mgrwt>
<rscale>  0 0.18659592E+03</rscale>
<asrwt>0</asrwt>
<pdfrwt beam="1">  1        1 0.16559167E+00 0.19762146E+03</pdfrwt>
<pdfrwt beam="2">  1       -1 0.88948412E-02 0.19762146E+03</pdfrwt>
<totfact> 0.10304175E+03</totfact>
</mgrwt>
</event>
<event>
 8    1  0.6836165E-004  0.1124918E+03  0.7546771E-02  0.1256453E+00
          1   -1    0    0  501    0  0.00000000000E+00  0.00000000000E+00  0.90952334491E+03  0.90952334491E+03  0.00000000000E+00 0. -1.
         -1   -1    0    0    0  501 -0.00000000000E+00 -0.00000000000E+00 -0.14014144446E+02  0.14014144446E+02  0.00000000000E+00 0.  1.
         23    2    1    2    0    0 -0.48253897788E+02  0.43016691419E+02  0.50352248674E+03  0.51572872136E+03  0.90897442186E+02 0.  0.
         23    2    1    2    0    0  0.48253897788E+02 -0.43016691419E+02  0.39198671373E+03  0.40780876799E+03  0.92062658668E+02 0.  0.
          5    1    4    4  502    0  0.72836860009E+02 -0.29514891302E+02  0.33491655172E+03  0.34404581614E+03  0.47000000000E+01 0. -1.
         -5    1    3    3    0  503 -0.11805771333E+02 -0.23823222180E+02  0.61395278134E+02  0.67070055382E+02  0.47000000000E+01 0.  1.
          5    1    3    3  503    0 -0.36448126454E+02  0.66839913599E+02  0.44212720860E+03  0.44865866598E+03  0.47000000000E+01 0. -1.
         -5    1    4    4    0  502 -0.24582962221E+02 -0.13501800117E+02  0.57070162003E+02  0.63762951853E+02  0.47000000000E+01 0.  1.
<mgrwt>
<rscale>  0 0.11225315E+03</rscale>
<asrwt>0</asrwt>
<pdfrwt beam="1">  1        1 0.13992662E+00 0.11249181E+03</pdfrwt>
<pdfrwt beam="2">  1       -1 0.21560229E-02 0.11249181E+03</pdfrwt>
<totfact> 0.10943704E+04</totfact>
</mgrwt>
</event>
<event>
 8    1  0.6836165E-004  0.1531858E+03  0.7546771E-02  0.1203699E+00
          1   -1    0    0  501    0  0.00000000000E+00  0.00000000000E+00  0.95992496155E+02  0.95992496155E+02  0.00000000000E+00 0. -1.
         -1   -1    0    0    0  501 -0.00000000000E+00 -0.00000000000E+00 -0.42769643820E+03  0.42769643820E+03  0.00000000000E+00 0.  1.
         23    2    1    2    0    0 -0.93866689069E+02  0.23537347736E+02  0.14051641334E+02  0.15382887649E+03  0.11874726339E+03 0.  0.
         23    2    1    2    0    0  0.93866689069E+02 -0.23537347736E+02 -0.34575558338E+03  0.36986005786E+03  0.88795140139E+02 0.  0.
          5    1    3    3  502    0 -0.90586507601E+02  0.60427998005E+02  0.30279597092E+02  0.11312118414E+03  0.47000000000E+01 0. -1.
         -5    1    4    4    0  503  0.65940009121E+02 -0.57053331498E+02 -0.23795584993E+03  0.25347237315E+03  0.47000000000E+01 0.  1.
          5    1    4    4  503    0  0.27926679948E+02  0.33515983762E+02 -0.10779973345E+03  0.11638768471E+03  0.47000000000E+01 0. -1.
         -5    1    3    3    0  502 -0.32801814679E+01 -0.36890650269E+02 -0.16227955758E+02  0.40707692342E+02  0.47000000000E+01 0.  1.
<mgrwt>
<rscale>  0 0.14740458E+03</rscale>
<asrwt>0</asrwt>
<pdfrwt beam="1">  1        1 0.14768076E-01 0.15318575E+03</pdfrwt>
<pdfrwt beam="2">  1       -1 0.65799452E-01 0.15318575E+03</pdfrwt>
<totfact> 0.91485711E+02</totfact>
</mgrwt>
</event>
<event>
 8    1  0.6836165E-004  0.9978699E+02  0.7546771E-02  0.1285438E+00
         -2   -1    0    0    0  501 -0.00000000000E+00  0.00000000000E+00  0.20948390193E+03  0.20948390193E+03  0.00000000000E+00 0.  1.
          2   -1    0    0  501    0  0.00000000000E+00 -0.00000000000E+00 -0.43579623320E+02  0.43579623320E+02  0.00000000000E+00 0. -1.
         23    2    1    2    0    0  0.10448182136E+02  0.19997559520E+02  0.85554762564E+02  0.13144223374E+03  0.97202759825E+02 0.  0.
         23    2    1    2    0    0 -0.10448182136E+02 -0.19997559520E+02  0.80349516045E+02  0.12162129150E+03  0.88468225493E+02 0.  0.
          5    1    4    4  502    0 -0.35213758809E+02 -0.32128778250E+02  0.14452771832E+02  0.50032387660E+02  0.47000000000E+01 0. -1.
         -5    1    4    4    0  502  0.24765576674E+02  0.12131218730E+02  0.65896744213E+02  0.71588903845E+02  0.47000000000E+01 0.  1.
          5    1    3    3  503    0  0.98115266365E+01  0.54330022338E+02  0.23132080318E+02  0.60043322043E+02  0.47000000000E+01 0. -1.
         -5    1    3    3    0  503  0.63665549902E+00 -0.34332462817E+02  0.62422682247E+02  0.71398911702E+02  0.47000000000E+01 0.  1.
<mgrwt>
<rscale>  0 0.97594010E+02</rscale>
<asrwt>0</asrwt>
<pdfrwt beam="1">  1        2 0.67045576E-02 0.99786990E+02</pdfrwt>
<pdfrwt beam="2">  1       -2 0.32228292E-01 0.99786990E+02</pdfrwt>
<totfact> 0.87442955E+03</totfact>
</mgrwt>
</event>
<event>
 8    1  0.6836165E-004  0.9720032E+02  0.7546771E-02  0.1286482E+00
          1   -1    0    0  501    0  0.00000000000E+00  0.00000000000E+00  0.29017451578E+02  0.29017451578E+02  0.00000000000E+00 0. -1.
         -1   -1    0    0    0  501 -0.00000000000E+00 -0.00000000000E+00 -0.34951047572E+03  0.34951047572E+03  0.00000000000E+00 0.  1.
         23    2    1    2    0    0  0.27957146711E+02  0.19229913002E+02 -0.21065903059E+03  0.23186024699E+03  0.90722408264E+02 0.  0.
         23    2    1    2    0    0 -0.27957146711E+02 -0.19229913002E+02 -0.10983399355E+03  0.14666768030E+03  0.91085183755E+02 0.  0.
          5    1    4    4  502    0 -0.38270596128E+02  0.42610170606E+01 -0.55697561603E+01  0.39190649115E+02  0.47000000000E+01 0. -1.
         -5    1    3    3    0  503  0.55798906078E+02  0.13876000645E+02 -0.18336420814E+03  0.19222534729E+03  0.47000000000E+01 0.  1.
          5    1    3    3  503    0 -0.27841759367E+02  0.53539123569E+01 -0.27294822451E+02  0.39634899707E+02  0.47000000000E+01 0. -1.
         -5    1    4    4    0  502  0.10313449417E+02 -0.23490930063E+02 -0.10426423739E+03  0.10747703119E+03  0.47000000000E+01 0.  1.
<mgrwt>
<rscale>  0 0.97115241E+02</rscale>
<asrwt>0</asrwt>
<pdfrwt beam="1">  1        1 0.44642234E-02 0.97200321E+02</pdfrwt>
<pdfrwt beam="2">  1       -1 0.53770841E-01 0.97200321E+02</pdfrwt>
<totfact> 0.64546009E+03</totfact>
</mgrwt>
</event>
<event>
 8    1  0.6836165E-004  0.1201430E+03  0.7546771E-02  0.1243103E+00
          1   -1    0    0  501    0  0.00000000000E+00  0.00000000000E+00  0.46033354952E+02  0.46033354952E+02  0.00000000000E+00 0. -1.
         -1   -1    0    0    0  501 -0.00000000000E+00 -0.00000000000E+00 -0.39149713138E+03  0.39149713138E+03  0.00000000000E+00 0.  1.
         23    2    1    2    0    0 -0.68058249639E+02 -0.35959958567E+02 -0.27162801867E+03  0.29701200469E+03  0.92245902033E+02 0.  0.
         23    2    1    2    0    0  0.68058249639E+02  0.35959958567E+02 -0.73835757764E+02  0.14051848164E+03  0.91480492973E+02 0.  0.
          5    1    3    3  502    0 -0.44928947166E+02  0.89426213693E+01 -0.43623249075E+02  0.63432315347E+02  0.47000000000E+01 0. -1.
         -5    1    4    4    0  503  0.49363734793E+00  0.21517777893E+02 -0.67470274716E+02  0.70975956587E+02  0.47000000000E+01 0.  1.
          5    1    4    4  503    0  0.67564612291E+02  0.14442180674E+02 -0.63654830480E+01  0.69542525056E+02  0.47000000000E+01 0. -1.
         -5    1    3    3    0  502 -0.23129302474E+02 -0.44902579936E+02 -0.22800476959E+03  0.23357968935E+03  0.47000000000E+01 0.  1.
<mgrwt>
<rscale>  0 0.11999610E+03</rscale>
<asrwt>0</asrwt>
<pdfrwt beam="1">  1        1 0.70820546E-02 0.12014304E+03</pdfrwt>
<pdfrwt beam="2">  1       -1 0.60230328E-01 0.12014304E+03</pdfrwt>
<totfact> 0.28417015E+03</totfact>
</mgrwt>
</event>
<event>
 8    1  0.6836165E-004  0.9702079E+02  0.7546771E-02  0.1288497E+00
         -1   -1    0    0    0  501 -0.00000000000E+00  0.00000000000E+00  0.69578733281E+02  0.69578733281E+02  0.00000000000E+00 0.  1.
          1   -1    0    0  501    0  0.00000000000E+00 -0.00000000000E+00 -0.13226529404E+03  0.13226529404E+03  0.00000000000E+00 0. -1.
         23    2    1    2    0    0 -0.30694312687E+02 -0.86681518423E+00 -0.20203271873E+02  0.95929611745E+02  0.88608272838E+02 0.  0.
         23    2    1    2    0    0  0.30694312687E+02  0.86681518423E+00 -0.42483288884E+02  0.10591441557E+03  0.92033371079E+02 0.  0.
          5    1    4    4  502    0 -0.26647460509E+02  0.29504650256E+01  0.90124958609E+01  0.28672416659E+02  0.47000000000E+01 0. -1.
         -5    1    4    4    0  502  0.57341773196E+02 -0.20836498413E+01 -0.51495784745E+02  0.77241998915E+02  0.47000000000E+01 0.  1.
          5    1    3    3  503    0 -0.38069066211E+02 -0.32343642405E+02 -0.33849769823E+02  0.60524886809E+02  0.47000000000E+01 0. -1.
         -5    1    3    3    0  503  0.73747535243E+01  0.31476827221E+02  0.13646497950E+02  0.35404724935E+02  0.47000000000E+01 0.  1.
<mgrwt>
<rscale>  0 0.96199735E+02</rscale>
<asrwt>0</asrwt>
<pdfrwt beam="1">  1        1 0.20348506E-01 0.97020789E+02</pdfrwt>
<pdfrwt beam="2">  1       -1 0.10704421E-01 0.97020789E+02</pdfrwt>
<totfact> 0.12417213E+04</totfact>
</mgrwt>
</event>
<event>
 8    1  0.6836165E-004  0.1158184E+03  0.7546771E-02  0.1253158E+00
          2   -1    0    0  501    0  0.00000000000E+00  0.00000000000E+00  0.12307617379E+03  0.12307617379E+03  0.00000000000E+00 0.  1.
         -2   -1    0    0    0  501 -0.00000000000E+00 -0.00000000000E+00 -0.31932849937E+03  0.31932849937E+03  0.00000000000E+00 0. -1.
         23    2    1    2    0    0  0.52984900986E+02  0.49099373321E+02  0.84957826039E+02  0.13827798510E+03  0.81760753209E+02 0.  0.
         23    2    1    2    0    0 -0.52984900986E+02 -0.49099373321E+02 -0.28121015162E+03  0.30412668805E+03  0.90530353029E+02 0.  0.
          5    1    3    3  502    0  0.24038456244E+02 -0.86359066205E+01 -0.59694047671E+01  0.26648640773E+02  0.47000000000E+01 0. -1.
         -5    1    4    4    0  503 -0.36525323085E+02  0.21278555605E+02 -0.86741507994E+02  0.96607739670E+02  0.47000000000E+01 0.  1.
          5    1    4    4  503    0 -0.16459577901E+02 -0.70377928927E+02 -0.19446864363E+03  0.20751894838E+03  0.47000000000E+01 0. -1.
         -5    1    3    3    0  502  0.28946444742E+02  0.57735279942E+02  0.90927230806E+02  0.11162934433E+03  0.47000000000E+01 0.  1.
<mgrwt>
<rscale>  0 0.11410114E+03</rscale>
<asrwt>0</asrwt>
<pdfrwt beam="1">  1        2 0.18934796E-01 0.11581836E+03</pdfrwt>
<pdfrwt beam="2">  1       -2 0.49127461E-01 0.11581836E+03</pdfrwt>
<totfact> 0.11474781E+03</totfact>
</mgrwt>
</event>
<event>
 8    1  0.6836165E-004  0.9509775E+02  0.7546771E-02  0.1291741E+00
          1   -1    0    0  501    0  0.00000000000E+00  0.00000000000E+00  0.89764730203E+03  0.89764730203E+03  0.00000000000E+00 0. -1.
         -1   -1    0    0    0  501 -0.00000000000E+00 -0.00000000000E+00 -0.54346739476E+02  0.54346739476E+02  0.00000000000E+00 0.  1.
         23    2    1    2    0    0 -0.54486272498E+01 -0.26683136596E+02 -0.81088644198E+01  0.95442835863E+02  0.91114784299E+02 0.  0.
         23    2    1    2    0    0  0.54486272498E+01  0.26683136596E+02  0.85140942697E+03  0.85655120564E+03  0.89667598554E+02 0.  0.
          5    1    3    3  502    0 -0.47106690874E+02 -0.41993452708E+01 -0.39481136746E+01  0.47690171183E+02  0.47000000000E+01 0. -1.
         -5    1    3    3    0  502  0.41658063625E+02 -0.22483791326E+02 -0.41607507452E+01  0.47752664681E+02  0.47000000000E+01 0.  1.
          5    1    4    4  503    0  0.22501965808E+02  0.55319404630E+02  0.52169408944E+03  0.52512226001E+03  0.47000000000E+01 0. -1.
         -5    1    4    4    0  503 -0.17053338559E+02 -0.28636268033E+02  0.32971533753E+03  0.33142894564E+03  0.47000000000E+01 0.  1.
<mgrwt>
<rscale>  0 0.94749422E+02</rscale>
<asrwt>0</asrwt>
<pdfrwt beam="1">  1        1 0.13809957E+00 0.95097746E+02</pdfrwt>
<pdfrwt beam="2">  1       -1 0.83610375E-02 0.95097746E+02</pdfrwt>
<totfact> 0.15279529E+03</totfact>
</mgrwt>
</event>
<event>
 8    1  0.6836165E-004  0.1071555E+03  0.7546771E-02  0.1266701E+00
          2   -1    0    0  501    0  0.00000000000E+00  0.00000000000E+00  0.44370774971E+03  0.44370774971E+03  0.00000000000E+00 0. -1.
         -2   -1    0    0    0  501 -0.00000000000E+00 -0.00000000000E+00 -0.30622647920E+02  0.30622647920E+02  0.00000000000E+00 0.  1.
         23    2    1    2    0    0 -0.37196465164E+01 -0.53577467753E+02  0.30488826819E+03  0.32317046587E+03  0.92724932513E+02 0.  0.
         23    2    1    2    0    0  0.37196465164E+01  0.53577467753E+02  0.10819683360E+03  0.15115993177E+03  0.90875680730E+02 0.  0.
          5    1    3    3  502    0  0.30406026615E+02 -0.51148417734E+02  0.10910655543E+03  0.12436646465E+03  0.47000000000E+01 0. -1.
         -5    1    4    4    0  503 -0.23422351472E+02  0.36055753645E+02  0.57440405773E+01  0.43631501482E+02  0.47000000000E+01 0.  1.
          5    1    4    4  503    0  0.27141997989E+02  0.17521714108E+02  0.10245279303E+03  0.10752843028E+03  0.47000000000E+01 0. -1.
         -5    1    3    3    0  502 -0.34125673132E+02 -0.24290500188E+01  0.19578171275E+03  0.19880400122E+03  0.47000000000E+01 0.  1.
<mgrwt>
<rscale>  0 0.10675418E+03</rscale>
<asrwt>0</asrwt>
<pdfrwt beam="1">  1        2 0.68262726E-01 0.10715547E+03</pdfrwt>
<pdfrwt beam="2">  1       -2 0.47111769E-02 0.10715547E+03</pdfrwt>
<totfact> 0.14135367E+04</totfact>
</mgrwt>
</event>
<event>
 8    1  0.6836165E-004  0.9675192E+02  0.7546771E-02  0.1287476E+00
          1   -1    0    0  501    0  0.00000000000E+00  0.00000000000E+00  0.46463081047E+03  0.46463081047E+03  0.00000000000E+00 0. -1.
         -1   -1    0    0    0  501 -0.00000000000E+00 -0.00000000000E+00 -0.23903418811E+02  0.23903418811E+02  0.00000000000E+00 0.  1.
         23    2    1    2    0    0 -0.61951299281E+00 -0.28019929988E+02  0.12222857706E+03  0.15566424260E+03  0.92228147024E+02 0.  0.
         23    2    1    2    0    0  0.61951299281E+00  0.28019929988E+02  0.31849881461E+03  0.33286998668E+03  0.92603633046E+02 0.  0.
          5    1    4    4  502    0  0.17294193213E+02  0.41495242529E+02  0.30212431771E+03  0.30548672250E+03  0.47000000000E+01 0. -1.
         -5    1    3    3    0  503  0.79617143514E+01 -0.59898929315E+02  0.94644512413E+02  0.11238747421E+03  0.47000000000E+01 0.  1.
          5    1    3    3  503    0 -0.85812273442E+01  0.31878999326E+02  0.27584064642E+02  0.43276768398E+02  0.47000000000E+01 0. -1.
         -5    1    4    4    0  502 -0.16674680221E+02 -0.13475312541E+02  0.16374496895E+02  0.27383264179E+02  0.47000000000E+01 0.  1.
<mgrwt>
<rscale>  0 0.96661959E+02</rscale>
<asrwt>0</asrwt>
<pdfrwt beam="1">  1        1 0.71481657E-01 0.96751915E+02</pdfrwt>
<pdfrwt beam="2">  1       -1 0.36774494E-02 0.96751915E+02</pdfrwt>
<totfact> 0.12780551E+04</totfact>
</mgrwt>
</event>
<event>
 8    1  0.6836165E-004  0.2571432E+03  0.7546771E-02  0.1108993E+00
          1   -1    0    0  501    0  0.00000000000E+00  0.00000000000E+00  0.53703203500E+03  0.53703203500E+03  0.00000000000E+00 0. -1.
         -1   -1    0    0    0  501 -0.00000000000E+00 -0.00000000000E+00 -0.12585422180E+03  0.12585422180E+03  0.00000000000E+00 0.  1.
         23    2    1    2    0    0 -0.14116503802E+02  0.24005709789E+03  0.15318045044E+03  0.29862634295E+03  0.88807411746E+02 0.  0.
         23    2    1    2    0    0  0.14116503802E+02 -0.24005709789E+03  0.25799736276E+03  0.36425991386E+03  0.91082159203E+02 0.  0.
          5    1    3    3  502    0 -0.33865084207E+02  0.32108408143E+02  0.35541459362E+02  0.58847932295E+02  0.47000000000E+01 0. -1.
         -5    1    3    3    0  502  0.19748580405E+02  0.20794868974E+03  0.11763899108E+03  0.23977841065E+03  0.47000000000E+01 0.  1.
          5    1    4    4  503    0 -0.23705924917E+02 -0.19575328515E+03  0.21455751019E+03  0.29144182044E+03  0.47000000000E+01 0. -1.
         -5    1    4    4    0  503  0.37822428719E+02 -0.44303812736E+02  0.43439852576E+02  0.72818093417E+02  0.47000000000E+01 0.  1.
<mgrwt>
<rscale>  0 0.25694378E+03</rscale>
<asrwt>0</asrwt>
<pdfrwt beam="1">  1        1 0.82620312E-01 0.25714324E+03</pdfrwt>
<pdfrwt beam="2">  1       -1 0.19362188E-01 0.25714324E+03</pdfrwt>
<totfact> 0.87398796E+02</totfact>
</mgrwt>
</event>
<event>
 8    1  0.6836165E-004  0.9287174E+02  0.7546771E-02  0.1296239E+00
          3   -1    0    0  501    0  0.00000000000E+00  0.00000000000E+00  0.62880172344E+02  0.62880172344E+02  0.00000000000E+00 0. -1.
         -3   -1    0    0    0  501 -0.00000000000E+00 -0.00000000000E+00 -0.16611205915E+03  0.16611205915E+03  0.00000000000E+00 0.  1.
         23    2    1    2    0    0 -0.10414844489E+02 -0.18668227951E+01 -0.34906714249E+01  0.92937320666E+02  0.92267040554E+02 0.  0.
         23    2    1    2    0    0  0.10414844489E+02  0.18668227951E+01 -0.99741215385E+02  0.13605491083E+03  0.91927551377E+02 0.  0.
          5    1    3    3  502    0 -0.21368500039E+02  0.34864155344E+02  0.21995043446E+02  0.46668983897E+02  0.47000000000E+01 0. -1.
         -5    1    3    3    0  502  0.10953655550E+02 -0.36730978139E+02 -0.25485714871E+02  0.46268336770E+02  0.47000000000E+01 0.  1.
          5    1    4    4  503    0 -0.41242437943E+01  0.34068271630E+02 -0.52094968373E+01  0.35026923588E+02  0.47000000000E+01 0. -1.
         -5    1    4    4    0  503  0.14539088283E+02 -0.32201448835E+02 -0.94531718547E+02  0.10102798724E+03  0.47000000000E+01 0.  1.
<mgrwt>
<rscale>  0 0.92787311E+02</rscale>
<asrwt>0</asrwt>
<pdfrwt beam="1">  1        3 0.96738727E-02 0.92871744E+02</pdfrwt>
<pdfrwt beam="2">  1       -3 0.25555701E-01 0.92871744E+02</pdfrwt>
<totfact> 0.23939123E+03</totfact>
</mgrwt>
</event>
<event>
 8    1  0.6836165E-004  0.1171181E+03  0.7546771E-02  0.1250293E+00
          2   -1    0    0  501    0  0.00000000000E+00  0.00000000000E+00  0.63117608424E+03  0.63117608424E+03  0.00000000000E+00 0. -1.
         -2   -1    0    0    0  501 -0.00000000000E+00 -0.00000000000E+00 -0.28934307949E+02  0.28934307949E+02  0.00000000000E+00 0.  1.
         23    2    1    2    0    0 -0.34088394014E+02 -0.54160987234E+02  0.13060798133E+03  0.17542833876E+03  0.98087848942E+02 0.  0.
         23    2    1    2    0    0  0.34088394014E+02  0.54160987234E+02  0.47163379496E+03  0.48468205343E+03  0.91557769833E+02 0.  0.
          5    1    3    3  502    0 -0.40524145723E+02  0.91191981200E+00  0.10784357885E+03  0.11530553102E+03  0.47000000000E+01 0. -1.
         -5    1    4    4    0  503 -0.96629248874E+01 -0.21034287354E+02  0.12902183061E+03  0.13116606320E+03  0.47000000000E+01 0.  1.
          5    1    4    4  503    0  0.43751318901E+02  0.75195274589E+02  0.34261196435E+03  0.35351599022E+03  0.47000000000E+01 0. -1.
         -5    1    3    3    0  502  0.64357517097E+01 -0.55072907046E+02  0.22764402473E+02  0.60122807740E+02  0.47000000000E+01 0.  1.
<mgrwt>
<rscale>  0 0.11574103E+03</rscale>
<asrwt>0</asrwt>
<pdfrwt beam="1">  1        2 0.97104003E-01 0.11711813E+03</pdfrwt>
<pdfrwt beam="2">  1       -2 0.44514325E-02 0.11711813E+03</pdfrwt>
<totfact> 0.10499856E+04</totfact>
</mgrwt>
</event>
<event>
 8    1  0.6836165E-004  0.1027408E+03  0.7546771E-02  0.1276280E+00
         -1   -1    0    0    0  501 -0.00000000000E+00  0.00000000000E+00  0.43457442665E+02  0.43457442665E+02  0.00000000000E+00 0.  1.
          1   -1    0    0  501    0  0.00000000000E+00 -0.00000000000E+00 -0.63296621696E+03  0.63296621696E+03  0.00000000000E+00 0. -1.
         23    2    1    2    0    0 -0.36966969192E+02  0.63885904764E+01 -0.25003648977E+02  0.10264521944E+03  0.92214357405E+02 0.  0.
         23    2    1    2    0    0  0.36966969192E+02 -0.63885904764E+01 -0.56450512532E+03  0.57377844019E+03  0.95646698918E+02 0.  0.
          5    1    4    4  502    0  0.58548472600E+02  0.97425261663E+01 -0.50242283095E+03  0.50593836731E+03  0.47000000000E+01 0. -1.
         -5    1    4    4    0  502 -0.21581503408E+02 -0.16131116643E+02 -0.62082294365E+02  0.67840072871E+02  0.47000000000E+01 0.  1.
          5    1    3    3  503    0  0.27244094360E+02 -0.37215374820E+01  0.87700964686E+01  0.29242009349E+02  0.47000000000E+01 0. -1.
         -5    1    3    3    0  503 -0.64211063552E+02  0.10110127958E+02 -0.33773745445E+02  0.73403210088E+02  0.47000000000E+01 0.  1.
<mgrwt>
<rscale>  0 0.10193444E+03</rscale>
<asrwt>0</asrwt>
<pdfrwt beam="1">  1        1 0.97379426E-01 0.10274075E+03</pdfrwt>
<pdfrwt beam="2">  1       -1 0.66857598E-02 0.10274075E+03</pdfrwt>
<totfact> 0.35561107E+03</totfact>
</mgrwt>
</event>
<event>
 8    1  0.6836165E-004  0.9578449E+02  0.7546771E-02  0.1289557E+00
          1   -1    0    0  501    0  0.00000000000E+00  0.00000000000E+00  0.59493439830E+02  0.59493439830E+02  0.00000000000E+00 0. -1.
         -1   -1    0    0    0  501 -0.00000000000E+00 -0.00000000000E+00 -0.16026497116E+03  0.16026497116E+03  0.00000000000E+00 0.  1.
         23    2    1    2    0    0  0.10768812093E+02  0.27212167457E+02 -0.72367913567E+02  0.11985128250E+03  0.90943639863E+02 0.  0.
         23    2    1    2    0    0 -0.10768812093E+02 -0.27212167457E+02 -0.28403617759E+02  0.99907128485E+02  0.91204163549E+02 0.  0.
          5    1    3    3  502    0 -0.37808958831E+02 -0.28068998444E+01 -0.30554544064E+02  0.48918976048E+02  0.47000000000E+01 0. -1.
         -5    1    3    3    0  502  0.48577770924E+02  0.30019067302E+02 -0.41813369503E+02  0.70932306454E+02  0.47000000000E+01 0.  1.
          5    1    4    4  503    0 -0.45115644664E+02 -0.22700599715E+02  0.57323733100E+01  0.51045947191E+02  0.47000000000E+01 0. -1.
         -5    1    4    4    0  503  0.34346832571E+02 -0.45115677425E+01 -0.34135991069E+02  0.48861181294E+02  0.47000000000E+01 0.  1.
<mgrwt>
<rscale>  0 0.95722423E+02</rscale>
<asrwt>0</asrwt>
<pdfrwt beam="1">  1        1 0.91528369E-02 0.95784492E+02</pdfrwt>
<pdfrwt beam="2">  1       -1 0.24656149E-01 0.95784492E+02</pdfrwt>
<totfact> 0.94010027E+03</totfact>
</mgrwt>
</event>
<event>
 8    1  0.6836165E-004  0.1009515E+03  0.7546771E-02  0.1279411E+00
         -2   -1    0    0    0  501 -0.00000000000E+00  0.00000000000E+00  0.51892923687E+02  0.51892923687E+02  0.00000000000E+00 0.  1.
          2   -1    0    0  501    0  0.00000000000E+00 -0.00000000000E+00 -0.22734554276E+03  0.22734554276E+03  0.00000000000E+00 0. -1.
         23    2    1    2    0    0 -0.35963127830E+02 -0.17760776597E+01 -0.32148652102E+02  0.10394663457E+03  0.92059035360E+02 0.  0.
         23    2    1    2    0    0  0.35963127830E+02  0.17760776597E+01 -0.14330396697E+03  0.17529183188E+03  0.94311708488E+02 0.  0.
          5    1    4    4  502    0  0.66630879278E+02  0.31266097024E+01 -0.11622496256E+03  0.13408870826E+03  0.47000000000E+01 0. -1.
         -5    1    3    3    0  503  0.12541072054E+02  0.27842489321E+02  0.10613421627E+02  0.32668293779E+02  0.47000000000E+01 0.  1.
          5    1    3    3  503    0 -0.48504199884E+02 -0.29618566980E+02 -0.42762073729E+02  0.71278340791E+02  0.47000000000E+01 0. -1.
         -5    1    4    4    0  502 -0.30667751448E+02 -0.13505320427E+01 -0.27079004411E+02  0.41203123614E+02  0.47000000000E+01 0.  1.
<mgrwt>
<rscale>  0 0.10042201E+03</rscale>
<asrwt>0</asrwt>
<pdfrwt beam="1">  1        2 0.34976237E-01 0.10095147E+03</pdfrwt>
<pdfrwt beam="2">  1       -2 0.79835269E-02 0.10095147E+03</pdfrwt>
<totfact> 0.12846715E+04</totfact>
</mgrwt>
</event>
<event>
 8    1  0.6836165E-004  0.9803796E+02  0.7546771E-02  0.1284622E+00
         -2   -1    0    0    0  501 -0.00000000000E+00  0.00000000000E+00  0.47178805938E+02  0.47178805938E+02  0.00000000000E+00 0.  1.
          2   -1    0    0  501    0  0.00000000000E+00 -0.00000000000E+00 -0.22266884965E+03  0.22266884965E+03  0.00000000000E+00 0. -1.
         23    2    1    2    0    0 -0.89003015629E+01  0.32498851359E+02 -0.12756674348E+03  0.16072348862E+03  0.91778946631E+02 0.  0.
         23    2    1    2    0    0  0.89003015629E+01 -0.32498851359E+02 -0.47923300230E+02  0.10912416697E+03  0.92065468029E+02 0.  0.
          5    1    4    4  502    0  0.16775117370E+02 -0.55948922815E+02 -0.57582535671E+02  0.82155492460E+02  0.47000000000E+01 0. -1.
         -5    1    4    4    0  502 -0.78748158067E+01  0.23450071456E+02  0.96592354415E+01  0.26968674506E+02  0.47000000000E+01 0.  1.
          5    1    3    3  503    0 -0.49756534667E+02  0.17519807626E+02 -0.58074874941E+02  0.78596676143E+02  0.47000000000E+01 0. -1.
         -5    1    3    3    0  503  0.40856233104E+02  0.14979043733E+02 -0.69491868543E+02  0.82126812480E+02  0.47000000000E+01 0.  1.
<mgrwt>
<rscale>  0 0.97970634E+02</rscale>
<asrwt>0</asrwt>
<pdfrwt beam="1">  1        2 0.34256746E-01 0.98037958E+02</pdfrwt>
<pdfrwt beam="2">  1       -2 0.72582778E-02 0.98037958E+02</pdfrwt>
<totfact> 0.15146680E+04</totfact>
</mgrwt>
</event>
<event>
 8    1  0.6836165E-004  0.9658901E+02  0.7546771E-02  0.1287645E+00
          3   -1    0    0  501    0  0.00000000000E+00  0.00000000000E+00  0.17527179742E+03  0.17527179742E+03  0.00000000000E+00 0. -1.
         -3   -1    0    0    0  501 -0.00000000000E+00 -0.00000000000E+00 -0.62693659850E+02  0.62693659850E+02  0.00000000000E+00 0.  1.
         23    2    1    2    0    0 -0.10042525696E+02  0.30693176679E+02  0.10034059403E+02  0.97094152795E+02  0.91014662236E+02 0.  0.
         23    2    1    2    0    0  0.10042525696E+02 -0.30693176679E+02  0.10254407817E+03  0.14087130448E+03  0.91030286394E+02 0.  0.
          5    1    3    3  502    0  0.31980093108E+02 -0.37627628177E+01  0.24417687275E+02  0.40684127016E+02  0.47000000000E+01 0. -1.
         -5    1    3    3    0  502 -0.42022618803E+02  0.34455939496E+02 -0.14383627871E+02  0.56410025779E+02  0.47000000000E+01 0.  1.
          5    1    4    4  503    0  0.36316609055E+02 -0.50102536293E+02  0.78354516733E+02  0.99953391782E+02  0.47000000000E+01 0. -1.
         -5    1    4    4    0  503 -0.26274083359E+02  0.19409359614E+02  0.24189561437E+02  0.40917912698E+02  0.47000000000E+01 0.  1.
<mgrwt>
<rscale>  0 0.96585327E+02</rscale>
<asrwt>0</asrwt>
<pdfrwt beam="1">  1        3 0.26964892E-01 0.96589008E+02</pdfrwt>
<pdfrwt beam="2">  1       -3 0.96451785E-02 0.96589008E+02</pdfrwt>
<totfact> 0.22011265E+03</totfact>
</mgrwt>
</event>
<event>
 8    1  0.6836165E-004  0.1027626E+03  0.7546771E-02  0.1277500E+00
          3   -1    0    0  501    0  0.00000000000E+00  0.00000000000E+00  0.99201839329E+02  0.99201839329E+02  0.00000000000E+00 0. -1.
         -3   -1    0    0    0  501 -0.00000000000E+00 -0.00000000000E+00 -0.10413894527E+03  0.10413894527E+03  0.00000000000E+00 0.  1.
         23    2    1    2    0    0 -0.24697374451E+02  0.33737457518E+02 -0.20834962408E+02  0.10485346282E+03  0.93872129321E+02 0.  0.
         23    2    1    2    0    0  0.24697374451E+02 -0.33737457518E+02  0.15897856462E+02  0.98487321778E+02  0.87743001809E+02 0.  0.
          5    1    4    4  502    0 -0.28032565259E+02 -0.20701092572E+02  0.25090846814E+02  0.43197228412E+02  0.47000000000E+01 0. -1.
         -5    1    3    3    0  503  0.23118499187E+02  0.20449476392E+02  0.22755101650E+02  0.38633285396E+02  0.47000000000E+01 0.  1.
          5    1    3    3  503    0 -0.47815873638E+02  0.13287981126E+02 -0.43590064058E+02  0.66220177429E+02  0.47000000000E+01 0. -1.
         -5    1    4    4    0  502  0.52729939710E+02 -0.13036364945E+02 -0.91929903515E+01  0.55290093366E+02  0.47000000000E+01 0.  1.
<mgrwt>
<rscale>  0 0.10134169E+03</rscale>
<asrwt>0</asrwt>
<pdfrwt beam="1">  1        3 0.15261821E-01 0.10276261E+03</pdfrwt>
<pdfrwt beam="2">  1       -3 0.16021376E-01 0.10276261E+03</pdfrwt>
<totfact> 0.25881105E+03</totfact>
</mgrwt>
</event>
<event>
 8    1  0.6836165E-004  0.9380423E+02  0.7546771E-02  0.1296257E+00
         -1   -1    0    0    0  501 -0.00000000000E+00  0.00000000000E+00  0.10298913055E+03  0.10298913055E+03  0.00000000000E+00 0.  1.
          1   -1    0    0  501    0  0.00000000000E+00 -0.00000000000E+00 -0.15290762464E+03  0.15290762464E+03  0.00000000000E+00 0. -1.
         23    2    1    2    0    0 -0.15333755670E+02  0.27710705042E+01 -0.11190436374E+03  0.14346241445E+03  0.88408567685E+02 0.  0.
         23    2    1    2    0    0  0.15333755670E+02 -0.27710705042E+01  0.61985869651E+02  0.11243434073E+03  0.92500973212E+02 0.  0.
          5    1    3    3  502    0 -0.18840947193E+02 -0.40856029736E+02 -0.49027718913E+02  0.66708347893E+02  0.47000000000E+01 0. -1.
         -5    1    4    4    0  503 -0.21498189263E+02  0.25875238453E+02  0.55530486779E+02  0.65095507283E+02  0.47000000000E+01 0.  1.
          5    1    4    4  503    0  0.36831944933E+02 -0.28646308957E+02  0.64553828720E+01  0.47338833450E+02  0.47000000000E+01 0. -1.
         -5    1    3    3    0  502  0.35071915231E+01  0.43627100240E+02 -0.62876644829E+02  0.76754066554E+02  0.47000000000E+01 0.  1.
<mgrwt>
<rscale>  0 0.92779307E+02</rscale>
<asrwt>0</asrwt>
<pdfrwt beam="1">  1        1 0.23524250E-01 0.93804227E+02</pdfrwt>
<pdfrwt beam="2">  1       -1 0.15844482E-01 0.93804227E+02</pdfrwt>
<totfact> 0.56519350E+03</totfact>
</mgrwt>
</event>
<event>
 8    1  0.6836165E-004  0.1321306E+03  0.7546771E-02  0.1225227E+00
          1   -1    0    0  501    0  0.00000000000E+00  0.00000000000E+00  0.83387769441E+02  0.83387769441E+02  0.00000000000E+00 0. -1.
         -1   -1    0    0    0  501 -0.00000000000E+00 -0.00000000000E+00 -0.42159763823E+03  0.42159763823E+03  0.00000000000E+00 0.  1.
         23    2    1    2    0    0  0.70380659385E+02  0.62331088521E+02  0.10889391268E+02  0.13257859000E+03  0.92843426650E+02 0.  0.
         23    2    1    2    0    0 -0.70380659385E+02 -0.62331088521E+02 -0.34909926006E+03  0.37240681767E+03  0.89319329739E+02 0.  0.
          5    1    3    3  502    0  0.52690334896E+02  0.78552382779E+02  0.32313098061E+02  0.10006485166E+03  0.47000000000E+01 0. -1.
         -5    1    3    3    0  502  0.17690324488E+02 -0.16221294258E+02 -0.21423706792E+02  0.32513738337E+02  0.47000000000E+01 0.  1.
          5    1    4    4  503    0  0.17249115282E+02 -0.11271391139E+02 -0.11959314652E+03  0.12144623062E+03  0.47000000000E+01 0. -1.
         -5    1    4    4    0  503 -0.87629774667E+02 -0.51059697382E+02 -0.22950611353E+03  0.25096058705E+03  0.47000000000E+01 0.  1.
<mgrwt>
<rscale>  0 0.13151332E+03</rscale>
<asrwt>0</asrwt>
<pdfrwt beam="1">  1        1 0.12828888E-01 0.13213063E+03</pdfrwt>
<pdfrwt beam="2">  1       -1 0.64861175E-01 0.13213063E+03</pdfrwt>
<totfact> 0.11262585E+03</totfact>
</mgrwt>
</event>
<event>
 8    1  0.6836165E-004  0.9667338E+02  0.7546771E-02  0.1290991E+00
          2   -1    0    0  501    0  0.00000000000E+00  0.00000000000E+00  0.10995339737E+03  0.10995339737E+03  0.00000000000E+00 0. -1.
         -2   -1    0    0    0  501 -0.00000000000E+00 -0.00000000000E+00 -0.13954870473E+03  0.13954870473E+03  0.00000000000E+00 0.  1.
         23    2    1    2    0    0 -0.59311006691E+01  0.18064529726E+02 -0.96240184091E+02  0.13208284386E+03  0.88443198829E+02 0.  0.
         23    2    1    2    0    0  0.59311006691E+01 -0.18064529726E+02  0.66644876735E+02  0.11741925824E+03  0.94785217315E+02 0.  0.
          5    1    3    3  502    0  0.19168266711E+02 -0.22908427287E+02 -0.76480765959E+01  0.31189766993E+02  0.47000000000E+01 0. -1.
         -5    1    4    4    0  503 -0.42733667513E+02 -0.51682296008E+01  0.16881715359E+02  0.46475361750E+02  0.47000000000E+01 0.  1.
          5    1    4    4  503    0  0.48664768182E+02 -0.12896300125E+02  0.49763161376E+02  0.70943896491E+02  0.47000000000E+01 0. -1.
         -5    1    3    3    0  502 -0.25099367380E+02  0.40972957013E+02 -0.88592107496E+02  0.10089307687E+03  0.47000000000E+01 0.  1.
<mgrwt>
<rscale>  0 0.95082135E+02</rscale>
<asrwt>0</asrwt>
<pdfrwt beam="1">  1        2 0.16915907E-01 0.96673381E+02</pdfrwt>
<pdfrwt beam="2">  1       -2 0.21469032E-01 0.96673381E+02</pdfrwt>
<totfact> 0.58157138E+03</totfact>
</mgrwt>
</event>
<event>
 8    1  0.6836165E-004  0.9256654E+02  0.7546771E-02  0.1297362E+00
         -1   -1    0    0    0  501 -0.00000000000E+00  0.00000000000E+00  0.24897665400E+02  0.24897665400E+02  0.00000000000E+00 0.  1.
          1   -1    0    0  501    0  0.00000000000E+00 -0.00000000000E+00 -0.38370573147E+03  0.38370573147E+03  0.00000000000E+00 0. -1.
         23    2    1    2    0    0  0.95799120868E+01  0.14117528068E+02 -0.24901380930E+03  0.26566227000E+03  0.90980685685E+02 0.  0.
         23    2    1    2    0    0 -0.95799120868E+01 -0.14117528068E+02 -0.10979425677E+03  0.14294112687E+03  0.89923899023E+02 0.  0.
          5    1    3    3  502    0 -0.91501872821E+01 -0.33053420857E+02 -0.54366682671E+02  0.64452158555E+02  0.47000000000E+01 0. -1.
         -5    1    3    3    0  502  0.18730099369E+02  0.47170948926E+02 -0.19464712663E+03  0.20121011145E+03  0.47000000000E+01 0.  1.
          5    1    4    4  503    0 -0.16008098900E+02 -0.35033519716E+02 -0.11377435092E+03  0.12020939922E+03  0.47000000000E+01 0. -1.
         -5    1    4    4    0  503  0.64281868137E+01  0.20915991648E+02  0.39800941464E+01  0.22731727646E+02  0.47000000000E+01 0.  1.
<mgrwt>
<rscale>  0 0.92305823E+02</rscale>
<asrwt>0</asrwt>
<pdfrwt beam="1">  1        1 0.59031643E-01 0.92566541E+02</pdfrwt>
<pdfrwt beam="2">  1       -1 0.38304106E-02 0.92566541E+02</pdfrwt>
<totfact> 0.15250217E+04</totfact>
</mgrwt>
</event>
<event>
 8    1  0.6836165E-004  0.1071008E+03  0.7546771E-02  0.1268715E+00
         -1   -1    0    0    0  501 -0.00000000000E+00  0.00000000000E+00  0.58262178854E+03  0.58262178854E+03  0.00000000000E+00 0.  1.
          1   -1    0    0  501    0  0.00000000000E+00 -0.00000000000E+00 -0.21620143942E+02  0.21620143942E+02  0.00000000000E+00 0. -1.
         23    2    1    2    0    0 -0.40803856750E+02  0.36372511146E+02  0.17585180718E+03  0.20589908125E+03  0.92101353294E+02 0.  0.
         23    2    1    2    0    0  0.40803856750E+02 -0.36372511146E+02  0.38514983742E+03  0.39834285123E+03  0.85724649731E+02 0.  0.
          5    1    3    3  502    0  0.13725293788E+02  0.47665621932E+02  0.99533128140E+02  0.11130736185E+03  0.47000000000E+01 0. -1.
         -5    1    4    4    0  503  0.59193583854E+02 -0.53564080735E+01  0.29809301482E+03  0.30399688643E+03  0.47000000000E+01 0.  1.
          5    1    4    4  503    0 -0.18389727104E+02 -0.31016103072E+02  0.87056822598E+02  0.94345964797E+02  0.47000000000E+01 0. -1.
         -5    1    3    3    0  502 -0.54529150537E+02 -0.11293110786E+02  0.76318679042E+02  0.94591719407E+02  0.47000000000E+01 0.  1.
<mgrwt>
<rscale>  0 0.10571626E+03</rscale>
<asrwt>0</asrwt>
<pdfrwt beam="1">  1        1 0.33261764E-02 0.10710076E+03</pdfrwt>
<pdfrwt beam="2">  1       -1 0.89634110E-01 0.10710076E+03</pdfrwt>
<totfact> 0.35702991E+03</totfact>
</mgrwt>
</event>
<event>
 8    1  0.6836165E-004  0.1545810E+03  0.7546771E-02  0.1195007E+00
         -1   -1    0    0    0  501 -0.00000000000E+00  0.00000000000E+00  0.17825477332E+02  0.17825477332E+02  0.00000000000E+00 0.  1.
          1   -1    0    0  501    0  0.00000000000E+00 -0.00000000000E+00 -0.13964695668E+04  0.13964695668E+04  0.00000000000E+00 0. -1.
         23    2    1    2    0    0 -0.39786884990E+02 -0.11566893142E+03 -0.83242361930E+03  0.84662251271E+03  0.94224726843E+02 0.  0.
         23    2    1    2    0    0  0.39786884990E+02  0.11566893142E+03 -0.54622047013E+03  0.56767253138E+03  0.94514564926E+02 0.  0.
          5    1    3    3  502    0 -0.53635224550E+02 -0.86932924119E+02 -0.76590932322E+03  0.77270515205E+03  0.47000000000E+01 0. -1.
         -5    1    3    3    0  502  0.13848339561E+02 -0.28736007304E+02 -0.66514296086E+02  0.73917360668E+02  0.47000000000E+01 0.  1.
          5    1    4    4  503    0 -0.26389100127E+02  0.67293372696E+02 -0.26237631753E+03  0.27219148520E+03  0.47000000000E+01 0. -1.
         -5    1    4    4    0  503  0.66175985116E+02  0.48375558727E+02 -0.28384415260E+03  0.29548104618E+03  0.47000000000E+01 0.  1.
<mgrwt>
<rscale>  0 0.15453677E+03</rscale>
<asrwt>0</asrwt>
<pdfrwt beam="1">  1        1 0.21484148E+00 0.15458105E+03</pdfrwt>
<pdfrwt beam="2">  1       -1 0.27423811E-02 0.15458105E+03</pdfrwt>
<totfact> 0.35816717E+03</totfact>
</mgrwt>
</event>
<event>
 8    1  0.6836165E-004  0.1199720E+03  0.7546771E-02  0.1246688E+00
          1   -1    0    0  501    0  0.00000000000E+00  0.00000000000E+00  0.21177106884E+03  0.21177106884E+03  0.00000000000E+00 0. -1.
         -1   -1    0    0    0  501 -0.00000000000E+00 -0.00000000000E+00 -0.68465458897E+02  0.68465458897E+02  0.00000000000E+00 0.  1.
         23    2    1    2    0    0  0.34450865860E+02 -0.47662773404E+02  0.35788899017E+02  0.12519638964E+03  0.10456906119E+03 0.  0.
         23    2    1    2    0    0 -0.34450865860E+02  0.47662773404E+02  0.10751671092E+03  0.15504013809E+03  0.94968411408E+02 0.  0.
          5    1    4    4  502    0 -0.17664643727E+02  0.73397441587E+02  0.95236300574E+02  0.12161935297E+03  0.47000000000E+01 0. -1.
         -5    1    3    3    0  503 -0.11914895321E+02 -0.50243002066E+02 -0.17156739420E+02  0.54614720494E+02  0.47000000000E+01 0.  1.
          5    1    3    3  503    0  0.46365761181E+02  0.25802286621E+01  0.52945638438E+02  0.70581669146E+02  0.47000000000E+01 0. -1.
         -5    1    4    4    0  502 -0.16786222134E+02 -0.25734668184E+02  0.12280410349E+02  0.33420785125E+02  0.47000000000E+01 0.  1.
<mgrwt>
<rscale>  0 0.11784914E+03</rscale>
<asrwt>0</asrwt>
<pdfrwt beam="1">  1        1 0.32580164E-01 0.11997204E+03</pdfrwt>
<pdfrwt beam="2">  1       -1 0.10533148E-01 0.11997204E+03</pdfrwt>
<totfact> 0.72109812E+03</totfact>
</mgrwt>
</event>
<event>
 8    1  0.6836165E-004  0.1101085E+03  0.7546771E-02  0.1261042E+00
          2   -1    0    0  501    0  0.00000000000E+00  0.00000000000E+00  0.13940499427E+03  0.13940499427E+03  0.00000000000E+00 0. -1.
         -2   -1    0    0    0  501 -0.00000000000E+00 -0.00000000000E+00 -0.10607033388E+03  0.10607033388E+03  0.00000000000E+00 0.  1.
         23    2    1    2    0    0  0.10094745314E+02 -0.56807924741E+02  0.70370456767E+02  0.13067470664E+03  0.93780774009E+02 0.  0.
         23    2    1    2    0    0 -0.10094745314E+02  0.56807924741E+02 -0.37035796377E+02  0.11480062152E+03  0.92078707044E+02 0.  0.
          5    1    4    4  502    0  0.33163517150E+02  0.45225369276E+02  0.34362032351E+00  0.56279312103E+02  0.47000000000E+01 0. -1.
         -5    1    4    4    0  502 -0.43258262464E+02  0.11582555465E+02 -0.37379416701E+02  0.58521309413E+02  0.47000000000E+01 0.  1.
          5    1    3    3  503    0  0.24980567954E+02 -0.72921694279E+02  0.26935110476E+02  0.81787483444E+02  0.47000000000E+01 0. -1.
         -5    1    3    3    0  503 -0.14885822640E+02  0.16113769538E+02  0.43435346292E+02  0.48887223197E+02  0.47000000000E+01 0.  1.
<mgrwt>
<rscale>  0 0.10974518E+03</rscale>
<asrwt>0</asrwt>
<pdfrwt beam="1">  1        2 0.21446922E-01 0.11010848E+03</pdfrwt>
<pdfrwt beam="2">  1       -2 0.16318513E-01 0.11010848E+03</pdfrwt>
<totfact> 0.71018841E+03</totfact>
</mgrwt>
</event>
<event>
 8    1  0.6836165E-004  0.1561413E+03  0.7546771E-02  0.1198312E+00
          2   -1    0    0  501    0  0.00000000000E+00  0.00000000000E+00  0.20881083458E+03  0.20881083458E+03  0.00000000000E+00 0. -1.
         -2   -1    0    0    0  501 -0.00000000000E+00 -0.00000000000E+00 -0.10730376488E+03  0.10730376488E+03  0.00000000000E+00 0.  1.
         23    2    1    2    0    0 -0.10408497497E+03 -0.59740314652E+00  0.22734336727E+02  0.14122817349E+03  0.92706569436E+02 0.  0.
         23    2    1    2    0    0  0.10408497497E+03  0.59740314652E+00  0.78772732974E+02  0.17488642596E+03  0.11638762657E+03 0.  0.
          5    1    3    3  502    0 -0.88704679248E+02 -0.39341516098E+02  0.11710342867E+02  0.97854469185E+02  0.47000000000E+01 0. -1.
         -5    1    4    4    0  503  0.81815734429E+02  0.45544563348E+02  0.81786009597E+02  0.12441528450E+03  0.47000000000E+01 0.  1.
          5    1    4    4  503    0  0.22269240544E+02 -0.44947160202E+02 -0.30132766223E+01  0.50471141463E+02  0.47000000000E+01 0. -1.
         -5    1    3    3    0  502 -0.15380295725E+02  0.38744112951E+02  0.11023993860E+02  0.43373704310E+02  0.47000000000E+01 0.  1.
<mgrwt>
<rscale>  0 0.15177263E+03</rscale>
<asrwt>0</asrwt>
<pdfrwt beam="1">  1        2 0.32124744E-01 0.15614134E+03</pdfrwt>
<pdfrwt beam="2">  1       -2 0.16508272E-01 0.15614134E+03</pdfrwt>
<totfact> 0.45779553E+03</totfact>
</mgrwt>
</event>
<event>
 8    1  0.6836165E-004  0.1259938E+03  0.7546771E-02  0.1233556E+00
         -1   -1    0    0    0  501 -0.00000000000E+00  0.00000000000E+00  0.45896910806E+02  0.45896910806E+02  0.00000000000E+00 0.  1.
          1   -1    0    0  501    0  0.00000000000E+00 -0.00000000000E+00 -0.35825987337E+03  0.35825987337E+03  0.00000000000E+00 0. -1.
         23    2    1    2    0    0  0.22869009643E+02  0.83840164682E+02 -0.11821152514E+03  0.17270654867E+03  0.91112142235E+02 0.  0.
         23    2    1    2    0    0 -0.22869009643E+02 -0.83840164682E+02 -0.19415143742E+03  0.23145023550E+03  0.91226454739E+02 0.  0.
          5    1    3    3  502    0  0.49370741449E+02  0.84506964565E+02 -0.10117726611E+03  0.14084681874E+03  0.47000000000E+01 0. -1.
         -5    1    4    4    0  503 -0.23999555886E+02 -0.33475652399E+02 -0.13123510709E+02  0.43484646941E+02  0.47000000000E+01 0.  1.
          5    1    4    4  503    0  0.11305462426E+01 -0.50364512283E+02 -0.18102792671E+03  0.18796558856E+03  0.47000000000E+01 0. -1.
         -5    1    3    3    0  502 -0.26501731806E+02 -0.66679988336E+00 -0.17034259032E+02  0.31859729935E+02  0.47000000000E+01 0.  1.
<mgrwt>
<rscale>  0 0.12597308E+03</rscale>
<asrwt>0</asrwt>
<pdfrwt beam="1">  1        1 0.55116903E-01 0.12599377E+03</pdfrwt>
<pdfrwt beam="2">  1       -1 0.70610632E-02 0.12599377E+03</pdfrwt>
<totfact> 0.69158380E+03</totfact>
</mgrwt>
</event>
<event>
 8    1  0.6836165E-004  0.9525677E+02  0.7546771E-02  0.1293893E+00
         -2   -1    0    0    0  501 -0.00000000000E+00  0.00000000000E+00  0.65792286108E+02  0.65792286108E+02  0.00000000000E+00 0.  1.
          2   -1    0    0  501    0  0.00000000000E+00 -0.00000000000E+00 -0.13029060592E+03  0.13029060592E+03  0.00000000000E+00 0. -1.
         23    2    1    2    0    0  0.39939828799E+01 -0.92950257987E+01 -0.39149491235E+02  0.10298803106E+03  0.94718015576E+02 0.  0.
         23    2    1    2    0    0 -0.39939828799E+01  0.92950257987E+01 -0.25348828582E+02  0.93094860968E+02  0.89004160714E+02 0.  0.
          5    1    4    4  502    0  0.10909711370E+02  0.37063722149E+02 -0.41900783270E+02  0.57188346193E+02  0.47000000000E+01 0. -1.
         -5    1    3    3    0  503  0.45080234433E+02 -0.15903569901E+02 -0.37988485076E+01  0.48183735037E+02  0.47000000000E+01 0.  1.
          5    1    3    3  503    0 -0.41086251553E+02  0.66085441022E+01 -0.35350642727E+02  0.54804296027E+02  0.47000000000E+01 0. -1.
         -5    1    4    4    0  502 -0.14903694250E+02 -0.27768696350E+02  0.16551954688E+02  0.35906514775E+02  0.47000000000E+01 0.  1.
<mgrwt>
<rscale>  0 0.93804000E+02</rscale>
<asrwt>0</asrwt>
<pdfrwt beam="1">  1        2 0.20044708E-01 0.95256768E+02</pdfrwt>
<pdfrwt beam="2">  1       -2 0.10121890E-01 0.95256768E+02</pdfrwt>
<totfact> 0.16210244E+04</totfact>
</mgrwt>
</event>
<event>
 8    1  0.6836165E-004  0.1076723E+03  0.7546771E-02  0.1266051E+00
         -1   -1    0    0    0  501 -0.00000000000E+00  0.00000000000E+00  0.10121603102E+03  0.10121603102E+03  0.00000000000E+00 0.  1.
          1   -1    0    0  501    0  0.00000000000E+00 -0.00000000000E+00 -0.11805324568E+03  0.11805324568E+03  0.00000000000E+00 0. -1.
         23    2    1    2    0    0  0.83100281618E+01  0.57252480714E+02  0.16273331708E+02  0.10662099404E+03  0.88069926361E+02 0.  0.
         23    2    1    2    0    0 -0.83100281618E+01 -0.57252480714E+02 -0.33110546362E+02  0.11264828266E+03  0.90809824302E+02 0.  0.
          5    1    4    4  502    0  0.22386377406E+01 -0.78920423233E+02 -0.37784827034E+02  0.87654023617E+02  0.47000000000E+01 0. -1.
         -5    1    3    3    0  503 -0.27640754532E+02  0.50783700545E+02 -0.13150475376E+02  0.59481262216E+02  0.47000000000E+01 0.  1.
          5    1    3    3  503    0  0.35950782694E+02  0.64687801694E+01  0.29423807085E+02  0.47139731825E+02  0.47000000000E+01 0. -1.
         -5    1    4    4    0  502 -0.10548665902E+02  0.21667942519E+02  0.46742806721E+01  0.24994259043E+02  0.47000000000E+01 0.  1.
<mgrwt>
<rscale>  0 0.10709252E+03</rscale>
<asrwt>0</asrwt>
<pdfrwt beam="1">  1        1 0.18162038E-01 0.10767231E+03</pdfrwt>
<pdfrwt beam="2">  1       -1 0.15571697E-01 0.10767231E+03</pdfrwt>
<totfact> 0.81264792E+03</totfact>
</mgrwt>
</event>
<event>
 8    1  0.6836165E-004  0.1049076E+03  0.7546771E-02  0.1273349E+00
          1   -1    0    0  501    0  0.00000000000E+00  0.00000000000E+00  0.20243501673E+03  0.20243501673E+03  0.00000000000E+00 0. -1.
         -1   -1    0    0    0  501 -0.00000000000E+00 -0.00000000000E+00 -0.89759226913E+02  0.89759226913E+02  0.00000000000E+00 0.  1.
         23    2    1    2    0    0 -0.47701557224E+02  0.17324877455E+02 -0.40206527186E+02  0.10677952834E+03  0.84910028293E+02 0.  0.
         23    2    1    2    0    0  0.47701557224E+02 -0.17324877455E+02  0.15288231700E+03  0.18541471529E+03  0.91815161364E+02 0.  0.
          5    1    4    4  502    0  0.52847147986E+02 -0.46721978001E+02  0.12820732001E+03  0.14640686863E+03  0.47000000000E+01 0. -1.
         -5    1    3    3    0  503 -0.41855199629E+02 -0.29220736033E+02 -0.26357966193E+02  0.57641491411E+02  0.47000000000E+01 0.  1.
          5    1    3    3  503    0 -0.58463575950E+01  0.46545613488E+02 -0.13848560993E+02  0.49138036933E+02  0.47000000000E+01 0. -1.
         -5    1    4    4    0  502 -0.51455907625E+01  0.29397100546E+02  0.24674996989E+02  0.39007846662E+02  0.47000000000E+01 0.  1.
<mgrwt>
<rscale>  0 0.10337776E+03</rscale>
<asrwt>0</asrwt>
<pdfrwt beam="1">  1        1 0.31143848E-01 0.10490764E+03</pdfrwt>
<pdfrwt beam="2">  1       -1 0.13809112E-01 0.10490764E+03</pdfrwt>
<totfact> 0.49828161E+03</totfact>
</mgrwt>
</event>
<event>
 8    1  0.6836165E-004  0.2389575E+03  0.7546771E-02  0.1120516E+00
         -2   -1    0    0    0  501 -0.00000000000E+00  0.00000000000E+00  0.10059815326E+03  0.10059815326E+03  0.00000000000E+00 0.  1.
          2   -1    0    0  501    0  0.00000000000E+00 -0.00000000000E+00 -0.57162290218E+03  0.57162290218E+03  0.00000000000E+00 0. -1.
         23    2    1    2    0    0 -0.19703715125E+03  0.99779448806E+02 -0.20612898966E+03  0.31557861409E+03  0.91220194652E+02 0.  0.
         23    2    1    2    0    0  0.19703715125E+03 -0.99779448806E+02 -0.26489575926E+03  0.35664244136E+03  0.90799175805E+02 0.  0.
          5    1    3    3  502    0 -0.35255842300E+02  0.34858971972E+02 -0.60460956468E+01  0.50167395944E+02  0.47000000000E+01 0. -1.
         -5    1    3    3    0  502 -0.16178130895E+03  0.64920476834E+02 -0.20008289401E+03  0.26541121814E+03  0.47000000000E+01 0.  1.
          5    1    4    4  503    0  0.34386826922E+02  0.12255789122E+02 -0.19654170592E+02  0.41725707356E+02  0.47000000000E+01 0.  1.
         -5    1    4    4    0  503  0.16265032433E+03 -0.11203523793E+03 -0.24524158867E+03  0.31491673400E+03  0.47000000000E+01 0. -1.
<mgrwt>
<rscale>  0 0.23891742E+03</rscale>
<asrwt>0</asrwt>
<pdfrwt beam="1">  1        2 0.87941984E-01 0.23895753E+03</pdfrwt>
<pdfrwt beam="2">  1       -2 0.15476639E-01 0.23895753E+03</pdfrwt>
<totfact> 0.17301670E+03</totfact>
</mgrwt>
</event>
<event>
 8    1  0.6836165E-004  0.9574978E+02  0.7546771E-02  0.1289910E+00
         -2   -1    0    0    0  501 -0.00000000000E+00  0.00000000000E+00  0.28955103031E+02  0.28955103031E+02  0.00000000000E+00 0.  1.
          2   -1    0    0  501    0  0.00000000000E+00 -0.00000000000E+00 -0.48193820070E+03  0.48193820070E+03  0.00000000000E+00 0. -1.
         23    2    1    2    0    0  0.23732391295E+02  0.16815642118E+02 -0.37776928574E+03  0.38971483639E+03  0.91225151324E+02 0.  0.
         23    2    1    2    0    0 -0.23732391295E+02 -0.16815642118E+02 -0.75213811930E+02  0.12117846735E+03  0.90449495448E+02 0.  0.
          5    1    3    3  502    0 -0.15790206968E+02  0.25960743873E+02 -0.30268932245E+03  0.30424695033E+03  0.47000000000E+01 0. -1.
         -5    1    3    3    0  502  0.39522598263E+02 -0.91451017549E+01 -0.75079963293E+02  0.85467886060E+02  0.47000000000E+01 0.  1.
          5    1    4    4  503    0 -0.10549632654E+02  0.30138382458E+02 -0.62841032233E+02  0.70644901999E+02  0.47000000000E+01 0. -1.
         -5    1    4    4    0  503 -0.13182758641E+02 -0.46954024575E+02 -0.12372779696E+02  0.50533565347E+02  0.47000000000E+01 0.  1.
<mgrwt>
<rscale>  0 0.95564566E+02</rscale>
<asrwt>0</asrwt>
<pdfrwt beam="1">  1        2 0.74144336E-01 0.95749780E+02</pdfrwt>
<pdfrwt beam="2">  1       -2 0.44546314E-02 0.95749780E+02</pdfrwt>
<totfact> 0.13918488E+04</totfact>
</mgrwt>
</event>
<event>
 8    1  0.6836165E-004  0.1099647E+03  0.7546771E-02  0.1260703E+00
          1   -1    0    0  501    0  0.00000000000E+00  0.00000000000E+00  0.62832331667E+02  0.62832331667E+02  0.00000000000E+00 0. -1.
         -1   -1    0    0    0  501 -0.00000000000E+00 -0.00000000000E+00 -0.21960866219E+03  0.21960866219E+03  0.00000000000E+00 0.  1.
         23    2    1    2    0    0  0.60346466194E+02  0.49967875816E+01 -0.12823474851E+03  0.16883260112E+03  0.91616770345E+02 0.  0.
         23    2    1    2    0    0 -0.60346466194E+02 -0.49967875816E+01 -0.28541582020E+02  0.11360839274E+03  0.91790964307E+02 0.  0.
          5    1    3    3  502    0 -0.16497404245E+02 -0.15446567837E+02 -0.76583988223E+01  0.24320811609E+02  0.47000000000E+01 0. -1.
         -5    1    3    3    0  502  0.76843870439E+02  0.20443355419E+02 -0.12057634968E+03  0.14451178951E+03  0.47000000000E+01 0.  1.
          5    1    4    4  503    0 -0.84579152934E+02 -0.46738432948E+00 -0.24549478478E+02  0.88196476418E+02  0.47000000000E+01 0. -1.
         -5    1    4    4    0  503  0.24232686740E+02 -0.45294032522E+01 -0.39921035425E+01  0.25411916322E+02  0.47000000000E+01 0.  1.
<mgrwt>
<rscale>  0 0.10992839E+03</rscale>
<asrwt>0</asrwt>
<pdfrwt beam="1">  1        1 0.96665125E-02 0.10996474E+03</pdfrwt>
<pdfrwt beam="2">  1       -1 0.33785948E-01 0.10996474E+03</pdfrwt>
<totfact> 0.52456588E+03</totfact>
</mgrwt>
</event>
<event>
 8    1  0.6836165E-004  0.1075697E+03  0.7546771E-02  0.1266211E+00
          1   -1    0    0  501    0  0.00000000000E+00  0.00000000000E+00  0.24326342413E+02  0.24326342413E+02  0.00000000000E+00 0. -1.
         -1   -1    0    0    0  501 -0.00000000000E+00 -0.00000000000E+00 -0.67280360957E+03  0.67280360957E+03  0.00000000000E+00 0.  1.
         23    2    1    2    0    0 -0.36459166736E+01  0.54119584911E+02 -0.13328514099E+03  0.17127802041E+03  0.92892460875E+02 0.  0.
         23    2    1    2    0    0  0.36459166736E+01 -0.54119584911E+02 -0.51519212616E+03  0.52585193157E+03  0.90305619409E+02 0.  0.
          5    1    3    3  502    0  0.25548688870E+01  0.80184058278E+02 -0.10038210900E+03  0.12858720140E+03  0.47000000000E+01 0. -1.
         -5    1    4    4    0  503  0.36673060678E+02 -0.60512616156E+02 -0.32448472320E+03  0.33214321562E+03  0.47000000000E+01 0.  1.
          5    1    4    4  503    0 -0.33027144004E+02  0.63930312457E+01 -0.19070740296E+03  0.19370871594E+03  0.47000000000E+01 0. -1.
         -5    1    3    3    0  502 -0.62007855606E+01 -0.26064473367E+02 -0.32903031995E+02  0.42690819012E+02  0.47000000000E+01 0.  1.
<mgrwt>
<rscale>  0 0.10700884E+03</rscale>
<asrwt>0</asrwt>
<pdfrwt beam="1">  1        1 0.37425142E-02 0.10756966E+03</pdfrwt>
<pdfrwt beam="2">  1       -1 0.10350825E+00 0.10756966E+03</pdfrwt>
<totfact> 0.22268817E+03</totfact>
</mgrwt>
</event>
<event>
 8    1  0.6836165E-004  0.8842840E+02  0.7546771E-02  0.1310021E+00
          3   -1    0    0  501    0  0.00000000000E+00  0.00000000000E+00  0.13226037654E+03  0.13226037654E+03  0.00000000000E+00 0. -1.
         -3   -1    0    0    0  501 -0.00000000000E+00 -0.00000000000E+00 -0.87836694135E+02  0.87836694135E+02  0.00000000000E+00 0.  1.
         23    2    1    2    0    0  0.19466911270E+02 -0.29441132237E+01 -0.44748906913E+02  0.94513105694E+02  0.80886550433E+02 0.  0.
         23    2    1    2    0    0 -0.19466911270E+02  0.29441132237E+01  0.89172589322E+02  0.12558396498E+03  0.86208776454E+02 0.  0.
          5    1    4    4  502    0 -0.24593006735E+02  0.40269072487E+02  0.65423908665E+02  0.80800940614E+02  0.47000000000E+01 0. -1.
         -5    1    4    4    0  502  0.51260954642E+01 -0.37324959263E+02  0.23748680657E+02  0.44783024370E+02  0.47000000000E+01 0.  1.
          5    1    3    3  503    0  0.99367291491E+01 -0.38362068544E+02 -0.49901344302E+01  0.40216642460E+02  0.47000000000E+01 0. -1.
         -5    1    3    3    0  503  0.95301821213E+01  0.35417955320E+02 -0.39758772483E+02  0.54296463234E+02  0.47000000000E+01 0.  1.
<mgrwt>
<rscale>  0 0.87103886E+02</rscale>
<asrwt>0</asrwt>
<pdfrwt beam="1">  1        3 0.20347750E-01 0.88428398E+02</pdfrwt>
<pdfrwt beam="2">  1       -3 0.13513337E-01 0.88428398E+02</pdfrwt>
<totfact> 0.20407695E+03</totfact>
</mgrwt>
</event>
<event>
 8    1  0.6836165E-004  0.1169556E+03  0.7546771E-02  0.1258394E+00
         -1   -1    0    0    0  501 -0.00000000000E+00  0.00000000000E+00  0.72108620193E+02  0.72108620193E+02  0.00000000000E+00 0.  1.
          1   -1    0    0  501    0  0.00000000000E+00 -0.00000000000E+00 -0.30360069526E+03  0.30360069526E+03  0.00000000000E+00 0. -1.
         23    2    1    2    0    0  0.23450005245E+02 -0.14700756636E+02  0.20682079525E+02  0.97733758765E+02  0.91422777234E+02 0.  0.
         23    2    1    2    0    0 -0.23450005245E+02  0.14700756636E+02 -0.25217415459E+03  0.27797555669E+03  0.11363358166E+03 0.  0.
          5    1    3    3  502    0  0.11611311196E+02  0.38663218777E+02  0.79324112611E+01  0.41408696940E+02  0.47000000000E+01 0. -1.
         -5    1    4    4    0  503  0.13493944282E+02 -0.18099240387E+02 -0.22471038591E+01  0.23169128396E+02  0.47000000000E+01 0.  1.
          5    1    4    4  503    0 -0.36943949528E+02  0.32799997023E+02 -0.24992705073E+03  0.25480642829E+03  0.47000000000E+01 0. -1.
         -5    1    3    3    0  502  0.11838694050E+02 -0.53363975413E+02  0.12749668263E+02  0.56325061824E+02  0.47000000000E+01 0.  1.
<mgrwt>
<rscale>  0 0.11118333E+03</rscale>
<asrwt>0</asrwt>
<pdfrwt beam="1">  1        1 0.46707800E-01 0.11695557E+03</pdfrwt>
<pdfrwt beam="2">  1       -1 0.11093634E-01 0.11695557E+03</pdfrwt>
<totfact> 0.42677388E+03</totfact>
</mgrwt>
</event>
<event>
 8    1  0.6836165E-004  0.1973279E+03  0.7546771E-02  0.1155850E+00
         -2   -1    0    0    0  501 -0.00000000000E+00  0.00000000000E+00  0.10722344708E+03  0.10722344708E+03  0.00000000000E+00 0.  1.
          2   -1    0    0  501    0  0.00000000000E+00 -0.00000000000E+00 -0.42922257604E+03  0.42922257604E+03  0.00000000000E+00 0. -1.
         23    2    1    2    0    0 -0.14822592474E+03  0.44016671302E+02 -0.39384562898E+02  0.20121984512E+03  0.12259645247E+03 0.  0.
         23    2    1    2    0    0  0.14822592474E+03 -0.44016671302E+02 -0.28261456606E+03  0.33522617800E+03  0.92721115986E+02 0.  0.
          5    1    4    4  502    0  0.10433197315E+03  0.15691020756E+02 -0.15445292227E+03  0.18710735942E+03  0.47000000000E+01 0. -1.
         -5    1    3    3    0  503 -0.85207667657E+02  0.80369172710E+02  0.22871841245E+01  0.11724705438E+03  0.47000000000E+01 0.  1.
          5    1    3    3  503    0 -0.63018257087E+02 -0.36352501408E+02 -0.41671747022E+02  0.83972790741E+02  0.47000000000E+01 0. -1.
         -5    1    4    4    0  502  0.43893951597E+02 -0.59707692058E+02 -0.12816164379E+03  0.14811881858E+03  0.47000000000E+01 0.  1.
<mgrwt>
<rscale>  0 0.19292391E+03</rscale>
<asrwt>0</asrwt>
<pdfrwt beam="1">  1        2 0.66034244E-01 0.19732785E+03</pdfrwt>
<pdfrwt beam="2">  1       -2 0.16495915E-01 0.19732785E+03</pdfrwt>
<totfact> 0.21341644E+03</totfact>
</mgrwt>
</event>
<event>
 8    1  0.6836165E-004  0.1146716E+03  0.7546771E-02  0.1257571E+00
          2   -1    0    0  501    0  0.00000000000E+00  0.00000000000E+00  0.17644401296E+03  0.17644401296E+03  0.00000000000E+00 0. -1.
         -2   -1    0    0    0  501 -0.00000000000E+00 -0.00000000000E+00 -0.10921320994E+03  0.10921320994E+03  0.00000000000E+00 0.  1.
         23    2    1    2    0    0 -0.35505212773E+02 -0.32621125431E+02 -0.56070725327E+02  0.11727417196E+03  0.91019488083E+02 0.  0.
         23    2    1    2    0    0  0.35505212773E+02  0.32621125431E+02  0.12330152835E+03  0.16838305094E+03  0.10404242881E+03 0.  0.
          5    1    3    3  502    0  0.56384273256E+01 -0.46291836360E+02 -0.80807440594E+00  0.46877168862E+02  0.47000000000E+01 0. -1.
         -5    1    4    4    0  503  0.91780243034E+00 -0.36189066893E+02  0.29561938476E+02  0.46973281026E+02  0.47000000000E+01 0.  1.
          5    1    4    4  503    0  0.34587410342E+02  0.68810192324E+02  0.93739589871E+02  0.12140976992E+03  0.47000000000E+01 0. -1.
         -5    1    3    3    0  502 -0.41143640098E+02  0.13670710929E+02 -0.55262650921E+02  0.70397003094E+02  0.47000000000E+01 0.  1.
<mgrwt>
<rscale>  0 0.11163564E+03</rscale>
<asrwt>0</asrwt>
<pdfrwt beam="1">  1        2 0.27145233E-01 0.11467164E+03</pdfrwt>
<pdfrwt beam="2">  1       -2 0.16802032E-01 0.11467164E+03</pdfrwt>
<totfact> 0.52371430E+03</totfact>
</mgrwt>
</event>
<event>
 8    1  0.6836165E-004  0.9924030E+02  0.7546771E-02  0.1282165E+00
          2   -1    0    0  501    0  0.00000000000E+00  0.00000000000E+00  0.13563500823E+04  0.13563500823E+04  0.00000000000E+00 0. -1.
         -2   -1    0    0    0  501 -0.00000000000E+00 -0.00000000000E+00 -0.72327638903E+01  0.72327638903E+01  0.00000000000E+00 0.  1.
         23    2    1    2    0    0 -0.35034244056E+02  0.18113656604E+02  0.69530326916E+03  0.70228000455E+03  0.90526603143E+02 0.  0.
         23    2    1    2    0    0  0.35034244056E+02 -0.18113656604E+02  0.65381404926E+03  0.66130284165E+03  0.91066648950E+02 0.  0.
          5    1    4    4  502    0  0.59473907674E+02 -0.18181317011E+02  0.58131277384E+03  0.58464890063E+03  0.47000000000E+01 0. -1.
         -5    1    4    4    0  502 -0.24439663618E+02  0.67660406984E-01  0.72501275422E+02  0.76653941017E+02  0.47000000000E+01 0.  1.
          5    1    3    3  503    0 -0.34481097421E+02 -0.30854971935E+02  0.42489737604E+03  0.42743519455E+03  0.47000000000E+01 0. -1.
         -5    1    3    3    0  503 -0.55314663535E+00  0.48968628538E+02  0.27040589312E+03  0.27484481001E+03  0.47000000000E+01 0.  1.
<mgrwt>
<rscale>  0 0.99116235E+02</rscale>
<asrwt>0</asrwt>
<pdfrwt beam="1">  1        2 0.20866904E+00 0.99240301E+02</pdfrwt>
<pdfrwt beam="2">  1       -2 0.11127340E-02 0.99240301E+02</pdfrwt>
<totfact> 0.27816105E+04</totfact>
</mgrwt>
</event>
<event>
 8    1  0.6836165E-004  0.1109297E+03  0.7546771E-02  0.1263184E+00
          1   -1    0    0  501    0  0.00000000000E+00  0.00000000000E+00  0.11647234652E+03  0.11647234652E+03  0.00000000000E+00 0. -1.
         -1   -1    0    0    0  501 -0.00000000000E+00 -0.00000000000E+00 -0.11902904374E+03  0.11902904374E+03  0.00000000000E+00 0.  1.
         23    2    1    2    0    0 -0.39970912649E+02  0.20635030260E+02 -0.51590923238E+02  0.11421759076E+03  0.91436077922E+02 0.  0.
         23    2    1    2    0    0  0.39970912649E+02 -0.20635030260E+02  0.49034226014E+02  0.12128379950E+03  0.10139983416E+03 0.  0.
          5    1    4    4  502    0  0.57777761855E+02  0.11080646278E+02  0.58821462231E+02  0.83325295714E+02  0.47000000000E+01 0. -1.
         -5    1    4    4    0  502 -0.17806849205E+02 -0.31715676538E+02 -0.97872362176E+01  0.37958503786E+02  0.47000000000E+01 0.  1.
          5    1    3    3  503    0  0.14479618642E+01 -0.32393398808E+02 -0.74309845318E+01  0.33596702383E+02  0.47000000000E+01 0. -1.
         -5    1    3    3    0  503 -0.41418874514E+02  0.53028429069E+02 -0.44159938707E+02  0.80620888373E+02  0.47000000000E+01 0.  1.
<mgrwt>
<rscale>  0 0.10860048E+03</rscale>
<asrwt>0</asrwt>
<pdfrwt beam="1">  1        1 0.17918823E-01 0.11092973E+03</pdfrwt>
<pdfrwt beam="2">  1       -1 0.18312160E-01 0.11092973E+03</pdfrwt>
<totfact> 0.64215632E+03</totfact>
</mgrwt>
</event>
<event>
 8    1  0.6836165E-004  0.9349636E+02  0.7546771E-02  0.1295960E+00
         -1   -1    0    0    0  501 -0.00000000000E+00  0.00000000000E+00  0.19923547035E+03  0.19923547035E+03  0.00000000000E+00 0.  1.
          1   -1    0    0  501    0  0.00000000000E+00 -0.00000000000E+00 -0.43077312561E+02  0.43077312561E+02  0.00000000000E+00 0. -1.
         23    2    1    2    0    0  0.16301487534E+02 -0.56325483927E+01  0.87041151908E+02  0.12604271268E+03  0.89516139315E+02 0.  0.
         23    2    1    2    0    0 -0.16301487534E+02  0.56325483927E+01  0.69117005877E+02  0.11627007022E+03  0.91891809381E+02 0.  0.
          5    1    3    3  502    0  0.20093884962E+01 -0.23200195875E+02 -0.10371415082E+02  0.25921863004E+02  0.47000000000E+01 0. -1.
         -5    1    4    4    0  503 -0.18057005474E+02 -0.18099484501E+02 -0.14111945967E+02  0.29578434794E+02  0.47000000000E+01 0.  1.
          5    1    4    4  503    0  0.17555179402E+01  0.23732032894E+02  0.83228951844E+02  0.86691635431E+02  0.47000000000E+01 0. -1.
         -5    1    3    3    0  502  0.14292099038E+02  0.17567647483E+02  0.97412566990E+02  0.10012084968E+03  0.47000000000E+01 0.  1.
<mgrwt>
<rscale>  0 0.92907353E+02</rscale>
<asrwt>0</asrwt>
<pdfrwt beam="1">  1        1 0.66272790E-02 0.93496357E+02</pdfrwt>
<pdfrwt beam="2">  1       -1 0.30651610E-01 0.93496357E+02</pdfrwt>
<totfact> 0.10065523E+04</totfact>
</mgrwt>
</event>
<event>
 8    1  0.6836165E-004  0.1196015E+03  0.7546771E-02  0.1245115E+00
          1   -1    0    0  501    0  0.00000000000E+00  0.00000000000E+00  0.79301701248E+03  0.79301701248E+03  0.00000000000E+00 0. -1.
         -1   -1    0    0    0  501 -0.00000000000E+00 -0.00000000000E+00 -0.17554596929E+02  0.17554596929E+02  0.00000000000E+00 0.  1.
         23    2    1    2    0    0 -0.58355298013E+02 -0.37263176549E+02  0.39592029286E+03  0.41359084308E+03  0.97522418194E+02 0.  0.
         23    2    1    2    0    0  0.58355298013E+02  0.37263176549E+02  0.37954212269E+03  0.39698076633E+03  0.93528716470E+02 0.  0.
          5    1    3    3  502    0 -0.49913838262E+02  0.21666118642E+01  0.34421082565E+03  0.34784949037E+03  0.47000000000E+01 0.  1.
         -5    1    4    4    0  503  0.61626241988E+02  0.53031996577E+00  0.12193787253E+03  0.13670775289E+03  0.47000000000E+01 0.  1.
          5    1    4    4  503    0 -0.32709439756E+01  0.36732856584E+02  0.25760425016E+03  0.26027301344E+03  0.47000000000E+01 0. -1.
         -5    1    3    3    0  502 -0.84414597511E+01 -0.39429788414E+02  0.51709467209E+02  0.65741352710E+02  0.47000000000E+01 0. -1.
<mgrwt>
<rscale>  0 0.11878476E+03</rscale>
<asrwt>0</asrwt>
<pdfrwt beam="1">  1        1 0.12200259E+00 0.11960145E+03</pdfrwt>
<pdfrwt beam="2">  1       -1 0.27007078E-02 0.11960145E+03</pdfrwt>
<totfact> 0.98050898E+03</totfact>
</mgrwt>
</event>
<event>
 8    1  0.6836165E-004  0.1086299E+03  0.7546771E-02  0.1263274E+00
          2   -1    0    0  501    0  0.00000000000E+00  0.00000000000E+00  0.40245633989E+03  0.40245633989E+03  0.00000000000E+00 0. -1.
         -2   -1    0    0    0  501 -0.00000000000E+00 -0.00000000000E+00 -0.33795209926E+02  0.33795209926E+02  0.00000000000E+00 0.  1.
         23    2    1    2    0    0  0.52785582455E+02  0.22584517255E+02  0.26466012535E+03  0.28608642428E+03  0.92217580057E+02 0.  0.
         23    2    1    2    0    0 -0.52785582455E+02 -0.22584517255E+02  0.10400100461E+03  0.15016512554E+03  0.91853022987E+02 0.  0.
          5    1    3    3  502    0 -0.77578075969E+01  0.37900790020E+02  0.55965248702E+02  0.68197159216E+02  0.47000000000E+01 0. -1.
         -5    1    4    4    0  503  0.19889780283E+02  0.13940289081E+02  0.37853003746E+02  0.45220293144E+02  0.47000000000E+01 0.  1.
          5    1    4    4  503    0 -0.72675362739E+02 -0.36524806337E+02  0.66148000866E+02  0.10494483239E+03  0.47000000000E+01 0. -1.
         -5    1    3    3    0  502  0.60543390052E+02 -0.15316272765E+02  0.20869487665E+03  0.21788926506E+03  0.47000000000E+01 0.  1.
<mgrwt>
<rscale>  0 0.10855251E+03</rscale>
<asrwt>0</asrwt>
<pdfrwt beam="1">  1        2 0.61916357E-01 0.10862992E+03</pdfrwt>
<pdfrwt beam="2">  1       -2 0.51992633E-02 0.10862992E+03</pdfrwt>
<totfact> 0.13554886E+04</totfact>
</mgrwt>
</event>
<event>
 8    1  0.6836165E-004  0.1237148E+03  0.7546771E-02  0.1237346E+00
         -2   -1    0    0    0  501 -0.00000000000E+00  0.00000000000E+00  0.34295787617E+02  0.34295787617E+02  0.00000000000E+00 0.  1.
          2   -1    0    0  501    0  0.00000000000E+00 -0.00000000000E+00 -0.47334216652E+03  0.47334216652E+03  0.00000000000E+00 0. -1.
         23    2    1    2    0    0  0.79505590478E+02 -0.25444777295E+02 -0.28221824876E+03  0.30788710438E+03  0.90436461103E+02 0.  0.
         23    2    1    2    0    0 -0.79505590478E+02  0.25444777295E+02 -0.15682813014E+03  0.19975084976E+03  0.91305881347E+02 0.  0.
          5    1    4    4  502    0 -0.52535777211E+02 -0.14076199163E+02 -0.26193337234E+02  0.60550212101E+02  0.47000000000E+01 0. -1.
         -5    1    4    4    0  502 -0.26969813267E+02  0.39520976457E+02 -0.13063479290E+03  0.13920063766E+03  0.47000000000E+01 0.  1.
          5    1    3    3  503    0  0.41836700078E+02  0.21143122351E+02 -0.20333035388E+03  0.20871670730E+03  0.47000000000E+01 0. -1.
         -5    1    3    3    0  503  0.37668890400E+02 -0.46587899646E+02 -0.78887894881E+02  0.99170397076E+02  0.47000000000E+01 0.  1.
<mgrwt>
<rscale>  0 0.12355437E+03</rscale>
<asrwt>0</asrwt>
<pdfrwt beam="1">  1        2 0.72821868E-01 0.12371475E+03</pdfrwt>
<pdfrwt beam="2">  1       -2 0.52762753E-02 0.12371475E+03</pdfrwt>
<totfact> 0.11259249E+04</totfact>
</mgrwt>
</event>
<event>
 8    1  0.6836165E-004  0.9885136E+02  0.7546771E-02  0.1285362E+00
          2   -1    0    0  501    0  0.00000000000E+00  0.00000000000E+00  0.21348190118E+03  0.21348190118E+03  0.00000000000E+00 0. -1.
         -2   -1    0    0    0  501 -0.00000000000E+00 -0.00000000000E+00 -0.86629239073E+02  0.86629239073E+02  0.00000000000E+00 0.  1.
         23    2    1    2    0    0 -0.17654686907E+02 -0.16699391412E+02 -0.43133744021E+02  0.10347195498E+03  0.90859055415E+02 0.  0.
         23    2    1    2    0    0  0.17654686907E+02  0.16699391412E+02  0.16998640613E+03  0.19663918528E+03  0.95817708559E+02 0.  0.
          5    1    3    3  502    0  0.35822712185E+02 -0.88434809385E+01 -0.58804737276E+01  0.37658250552E+02  0.47000000000E+01 0. -1.
         -5    1    3    3    0  502 -0.53477399092E+02 -0.78559104738E+01 -0.37253270293E+02  0.65813704428E+02  0.47000000000E+01 0.  1.
          5    1    4    4  503    0 -0.64695923016E+01  0.51979412841E+02  0.68033817408E+02  0.85990727959E+02  0.47000000000E+01 0. -1.
         -5    1    4    4    0  503  0.24124279209E+02 -0.35280021429E+02  0.10195258872E+03  0.11064845732E+03  0.47000000000E+01 0.  1.
<mgrwt>
<rscale>  0 0.97629236E+02</rscale>
<asrwt>0</asrwt>
<pdfrwt beam="1">  1        2 0.32843369E-01 0.98851358E+02</pdfrwt>
<pdfrwt beam="2">  1       -2 0.13327575E-01 0.98851358E+02</pdfrwt>
<totfact> 0.61510230E+03</totfact>
</mgrwt>
</event>
<event>
 8    1  0.6836165E-004  0.9255795E+02  0.7546771E-02  0.1297241E+00
         -2   -1    0    0    0  501 -0.00000000000E+00  0.00000000000E+00  0.43248087606E+02  0.43248087606E+02  0.00000000000E+00 0.  1.
          2   -1    0    0  501    0  0.00000000000E+00 -0.00000000000E+00 -0.21461701677E+03  0.21461701677E+03  0.00000000000E+00 0. -1.
         23    2    1    2    0    0 -0.13763645719E+02 -0.12947716050E+01 -0.12292610317E+03  0.15339653750E+03  0.90711391239E+02 0.  0.
         23    2    1    2    0    0  0.13763645719E+02  0.12947716050E+01 -0.48442825992E+02  0.10446856687E+03  0.91519722994E+02 0.  0.
          5    1    3    3  502    0  0.26968649875E+02  0.19678481969E+02 -0.91837938850E+02  0.97830709600E+02  0.47000000000E+01 0. -1.
         -5    1    4    4    0  503 -0.95257970513E+01 -0.22132832279E+02 -0.63337061337E+02  0.67928465410E+02  0.47000000000E+01 0.  1.
          5    1    4    4  503    0  0.23289442770E+02  0.23427603884E+02  0.14894235345E+02  0.36540101461E+02  0.47000000000E+01 0. -1.
         -5    1    3    3    0  502 -0.40732295593E+02 -0.20973253574E+02 -0.31088164321E+02  0.55565827904E+02  0.47000000000E+01 0.  1.
<mgrwt>
<rscale>  0 0.92357503E+02</rscale>
<asrwt>0</asrwt>
<pdfrwt beam="1">  1        2 0.33018002E-01 0.92557950E+02</pdfrwt>
<pdfrwt beam="2">  1       -2 0.66535521E-02 0.92557950E+02</pdfrwt>
<totfact> 0.17868239E+04</totfact>
</mgrwt>
</event>
<event>
 8    1  0.6836165E-004  0.9735542E+02  0.7546771E-02  0.1286697E+00
         -2   -1    0    0    0  501 -0.00000000000E+00  0.00000000000E+00  0.45566405480E+02  0.45566405480E+02  0.00000000000E+00 0.  1.
          2   -1    0    0  501    0  0.00000000000E+00 -0.00000000000E+00 -0.21454912876E+03  0.21454912876E+03  0.00000000000E+00 0. -1.
         23    2    1    2    0    0  0.15545822788E+02 -0.23401399751E+02 -0.11116835775E+03  0.14688753994E+03  0.91805487356E+02 0.  0.
         23    2    1    2    0    0 -0.15545822788E+02  0.23401399751E+02 -0.57814365524E+02  0.11322799429E+03  0.93213624080E+02 0.  0.
          5    1    4    4  502    0 -0.48865374781E+02  0.26542674963E+02 -0.56488302248E+02  0.79406276436E+02  0.47000000000E+01 0. -1.
         -5    1    4    4    0  502  0.33319551992E+02 -0.31412752119E+01 -0.13260632759E+01  0.33821717856E+02  0.47000000000E+01 0.  1.
          5    1    3    3  503    0 -0.21636379265E+02 -0.45336795285E+02 -0.44226583771E+02  0.67094251814E+02  0.47000000000E+01 0.  1.
         -5    1    3    3    0  503  0.37182202053E+02  0.21935395533E+02 -0.66941773982E+02  0.79793288130E+02  0.47000000000E+01 0. -1.
<mgrwt>
<rscale>  0 0.97016815E+02</rscale>
<asrwt>0</asrwt>
<pdfrwt beam="1">  1        2 0.33007559E-01 0.97355420E+02</pdfrwt>
<pdfrwt beam="2">  1       -2 0.70102162E-02 0.97355420E+02</pdfrwt>
<totfact> 0.16599933E+04</totfact>
</mgrwt>
</event>
<event>
 8    1  0.6836165E-004  0.1294647E+03  0.7546771E-02  0.1228920E+00
          2   -1    0    0  501    0  0.00000000000E+00  0.00000000000E+00  0.14870636426E+03  0.14870636426E+03  0.00000000000E+00 0. -1.
         -2   -1    0    0    0  501 -0.00000000000E+00 -0.00000000000E+00 -0.12331638581E+03  0.12331638581E+03  0.00000000000E+00 0.  1.
         23    2    1    2    0    0  0.83643786376E+02 -0.26005076658E+02 -0.30067776489E+02  0.13117999006E+03  0.92906251664E+02 0.  0.
         23    2    1    2    0    0 -0.83643786376E+02  0.26005076658E+02  0.55457754932E+02  0.14084276001E+03  0.95334009951E+02 0.  0.
          5    1    3    3  502    0  0.20817085467E+02  0.25683476701E+02 -0.36455568993E+02  0.49437744016E+02  0.47000000000E+01 0. -1.
         -5    1    3    3    0  502  0.62826700909E+02 -0.51688553359E+02  0.63877925039E+01  0.81742246046E+02  0.47000000000E+01 0.  1.
          5    1    4    4  503    0 -0.24096588241E+02  0.35459872027E+02  0.66603340960E+02  0.79348239528E+02  0.47000000000E+01 0. -1.
         -5    1    4    4    0  503 -0.59547198135E+02 -0.94547953691E+01 -0.11145586028E+02  0.61494520481E+02  0.47000000000E+01 0.  1.
<mgrwt>
<rscale>  0 0.12901815E+03</rscale>
<asrwt>0</asrwt>
<pdfrwt beam="1">  1        2 0.22877902E-01 0.12946475E+03</pdfrwt>
<pdfrwt beam="2">  1       -2 0.18971752E-01 0.12946475E+03</pdfrwt>
<totfact> 0.52069585E+03</totfact>
</mgrwt>
</event>
<event>
 8    1  0.6836165E-004  0.9339620E+02  0.7546771E-02  0.1296910E+00
         -1   -1    0    0    0  501 -0.00000000000E+00  0.00000000000E+00  0.37064589800E+02  0.37064589800E+02  0.00000000000E+00 0.  1.
          1   -1    0    0  501    0  0.00000000000E+00 -0.00000000000E+00 -0.23688882432E+03  0.23688882432E+03  0.00000000000E+00 0. -1.
         23    2    1    2    0    0 -0.13777936376E+02  0.10171497445E+01 -0.12673041987E+03  0.15535511603E+03  0.88790464752E+02 0.  0.
         23    2    1    2    0    0  0.13777936376E+02 -0.10171497445E+01 -0.73093814646E+02  0.11859829809E+03  0.92368741714E+02 0.  0.
          5    1    4    4  502    0  0.53154141895E+02  0.19414299794E+01 -0.46012662224E+02  0.70486786250E+02  0.47000000000E+01 0. -1.
         -5    1    3    3    0  503  0.78241950168E+01  0.37795445294E+02 -0.28646692890E+02  0.48295307496E+02  0.47000000000E+01 0.  1.
          5    1    3    3  503    0 -0.21602131393E+02 -0.36778295549E+02 -0.98083726982E+02  0.10705980853E+03  0.47000000000E+01 0. -1.
         -5    1    4    4    0  502 -0.39376205518E+02 -0.29585797239E+01 -0.27081152422E+02  0.48111511840E+02  0.47000000000E+01 0.  1.
<mgrwt>
<rscale>  0 0.92499019E+02</rscale>
<asrwt>0</asrwt>
<pdfrwt beam="1">  1        1 0.36444434E-01 0.93396202E+02</pdfrwt>
<pdfrwt beam="2">  1       -1 0.57022447E-02 0.93396202E+02</pdfrwt>
<totfact> 0.15410698E+04</totfact>
</mgrwt>
</event>
<event>
 8    1  0.6836165E-004  0.9946035E+02  0.7546771E-02  0.1282686E+00
          1   -1    0    0  501    0  0.00000000000E+00  0.00000000000E+00  0.78358149721E+03  0.78358149721E+03  0.00000000000E+00 0. -1.
         -1   -1    0    0    0  501 -0.00000000000E+00 -0.00000000000E+00 -0.12953200703E+02  0.12953200703E+02  0.00000000000E+00 0.  1.
         23    2    1    2    0    0  0.37306423796E+02 -0.63133156861E+01  0.46830063338E+03  0.47826692217E+03  0.89454672344E+02 0.  0.
         23    2    1    2    0    0 -0.37306423796E+02  0.63133156861E+01  0.30232766313E+03  0.31826777575E+03  0.91982248152E+02 0.  0.
          5    1    3    3  502    0 -0.46573088006E+01  0.29199777832E+02  0.69597524038E+02  0.75764258744E+02  0.47000000000E+01 0. -1.
         -5    1    4    4    0  503  0.19249014650E+02 -0.24433627587E+02  0.14185237393E+03  0.14529870168E+03  0.47000000000E+01 0.  1.
          5    1    4    4  503    0 -0.56555438446E+02  0.30746943273E+02  0.16047528920E+03  0.17296907406E+03  0.47000000000E+01 0. -1.
         -5    1    3    3    0  502  0.41963732597E+02 -0.35513093518E+02  0.39870310934E+03  0.40250266342E+03  0.47000000000E+01 0.  1.
<mgrwt>
<rscale>  0 0.98871955E+02</rscale>
<asrwt>0</asrwt>
<pdfrwt beam="1">  1        1 0.12055096E+00 0.99460350E+02</pdfrwt>
<pdfrwt beam="2">  1       -1 0.19928007E-02 0.99460350E+02</pdfrwt>
<totfact> 0.15246802E+04</totfact>
</mgrwt>
</event>
<event>
 8    1  0.6836165E-004  0.1552015E+03  0.7546771E-02  0.1194352E+00
          1   -1    0    0  501    0  0.00000000000E+00  0.00000000000E+00  0.52639032467E+03  0.52639032467E+03  0.00000000000E+00 0. -1.
         -1   -1    0    0    0  501 -0.00000000000E+00 -0.00000000000E+00 -0.76975723554E+02  0.76975723554E+02  0.00000000000E+00 0.  1.
         23    2    1    2    0    0 -0.12530989720E+03  0.88914369230E+01  0.32383390229E+02  0.15854391868E+03  0.91136503107E+02 0.  0.
         23    2    1    2    0    0  0.12530989720E+03 -0.88914369230E+01  0.41703121089E+03  0.44482212955E+03  0.90388428986E+02 0.  0.
          5    1    4    4  502    0  0.70245239262E+02 -0.39460412274E+01  0.35353681445E+03  0.36050011658E+03  0.47000000000E+01 0. -1.
         -5    1    4    4    0  502  0.55064657941E+02 -0.49453956956E+01  0.63494396438E+02  0.84322012973E+02  0.47000000000E+01 0.  1.
          5    1    3    3  503    0 -0.23364741120E+02  0.24376401266E+02  0.42890775926E+02  0.54788947113E+02  0.47000000000E+01 0. -1.
         -5    1    3    3    0  503 -0.10194515608E+03 -0.15484964343E+02 -0.10507385697E+02  0.10375497156E+03  0.47000000000E+01 0.  1.
<mgrwt>
<rscale>  0 0.15509181E+03</rscale>
<asrwt>0</asrwt>
<pdfrwt beam="1">  1        1 0.80983125E-01 0.15520145E+03</pdfrwt>
<pdfrwt beam="2">  1       -1 0.11842419E-01 0.15520145E+03</pdfrwt>
<totfact> 0.19447378E+03</totfact>
</mgrwt>
</event>
<event>
 8    1  0.6836165E-004  0.1444138E+03  0.7546771E-02  0.1207799E+00
          1   -1    0    0  501    0  0.00000000000E+00  0.00000000000E+00  0.41390195861E+03  0.41390195861E+03  0.00000000000E+00 0. -1.
         -1   -1    0    0    0  501 -0.00000000000E+00 -0.00000000000E+00 -0.70180114267E+02  0.70180114267E+02  0.00000000000E+00 0.  1.
         23    2    1    2    0    0 -0.11153292742E+03  0.40870382022E+01  0.30178304923E+03  0.33455694276E+03  0.91646283987E+02 0.  0.
         23    2    1    2    0    0  0.11153292742E+03 -0.40870382022E+01  0.41938795115E+02  0.14952513012E+03  0.90236379697E+02 0.  0.
          5    1    3    3  502    0 -0.33052807741E+02 -0.32438883621E+02  0.17416816976E+03  0.18028147611E+03  0.47000000000E+01 0. -1.
         -5    1    4    4    0  503  0.93909181099E+02  0.84566072560E+01 -0.81553793768E+01  0.94757842492E+02  0.47000000000E+01 0.  1.
          5    1    4    4  503    0  0.17623746320E+02 -0.12543645458E+02  0.50094174492E+02  0.54767287624E+02  0.47000000000E+01 0. -1.
         -5    1    3    3    0  502 -0.78480119677E+02  0.36525921823E+02  0.12761487947E+03  0.15427546666E+03  0.47000000000E+01 0.  1.
<mgrwt>
<rscale>  0 0.14419061E+03</rscale>
<asrwt>0</asrwt>
<pdfrwt beam="1">  1        1 0.63677223E-01 0.14441378E+03</pdfrwt>
<pdfrwt beam="2">  1       -1 0.10796941E-01 0.14441378E+03</pdfrwt>
<totfact> 0.30532151E+03</totfact>
</mgrwt>
</event>
<event>
 8    1  0.7267908E-004  0.1178693E+03  0.7546771E-02  0.1247822E+00
          3   -1    0    0  501    0  0.00000000000E+00  0.00000000000E+00  0.12873006246E+03  0.12873006246E+03  0.00000000000E+00 0. -1.
         -3   -1    0    0    0  501 -0.00000000000E+00 -0.00000000000E+00 -0.40264959083E+03  0.40264959083E+03  0.00000000000E+00 0.  1.
         23    2    1    2    0    0 -0.12604353994E+02 -0.68852770714E+02  0.90882892562E+02  0.14883840930E+03  0.94834583084E+02 0.  0.
         23    2    1    2    0    0  0.12604353994E+02  0.68852770714E+02 -0.36480242093E+03  0.38254124399E+03  0.91418943665E+02 0.  0.
          5    1    4    4  502    0 -0.64030723637E+01  0.33529061167E+02 -0.31139856187E+02  0.46443276389E+02  0.47000000000E+01 0. -1.
         -5    1    3    3    0  503  0.26166093529E+02  0.11157190830E+02  0.22843359676E+02  0.36783915494E+02  0.47000000000E+01 0.  1.
          5    1    3    3  503    0 -0.38770447523E+02 -0.80009961543E+02  0.68039532886E+02  0.11205449381E+03  0.47000000000E+01 0. -1.
         -5    1    4    4    0  502  0.19007426357E+02  0.35323709547E+02 -0.33366256474E+03  0.33609796760E+03  0.47000000000E+01 0.  1.
<mgrwt>
<rscale>  0 0.11718072E+03</rscale>
<asrwt>0</asrwt>
<pdfrwt beam="1">  1        3 0.19804625E-01 0.11786930E+03</pdfrwt>
<pdfrwt beam="2">  1       -3 0.61946091E-01 0.11786930E+03</pdfrwt>
<totfact> 0.13561413E+02</totfact>
</mgrwt>
</event>
<event>
 8    1  0.6836165E-004  0.1171998E+03  0.7546771E-02  0.1257031E+00
         -1   -1    0    0    0  501 -0.00000000000E+00  0.00000000000E+00  0.21206302879E+02  0.21206302879E+02  0.00000000000E+00 0.  1.
          1   -1    0    0  501    0  0.00000000000E+00 -0.00000000000E+00 -0.55643980852E+03  0.55643980852E+03  0.00000000000E+00 0. -1.
         23    2    1    2    0    0 -0.31402935029E+02  0.25935020579E+02 -0.24769470260E+03  0.27402272405E+03  0.10989548661E+03 0.  0.
         23    2    1    2    0    0  0.31402935029E+02 -0.25935020579E+02 -0.28753880304E+03  0.30362338735E+03  0.88599257743E+02 0.  0.
          5    1    4    4  502    0  0.35412721165E+02 -0.51314026447E+02 -0.13388071966E+03  0.14776104774E+03  0.47000000000E+01 0. -1.
         -5    1    4    4    0  502 -0.40097861361E+01  0.25379005868E+02 -0.15365808337E+03  0.15586233961E+03  0.47000000000E+01 0.  1.
          5    1    3    3  503    0 -0.63780048120E+02 -0.12780017047E+02 -0.11887820293E+03  0.13559255328E+03  0.47000000000E+01 0. -1.
         -5    1    3    3    0  503  0.32377113091E+02  0.38715037626E+02 -0.12881649968E+03  0.13843017077E+03  0.47000000000E+01 0.  1.
<mgrwt>
<rscale>  0 0.11193339E+03</rscale>
<asrwt>0</asrwt>
<pdfrwt beam="1">  1        1 0.85606116E-01 0.11719978E+03</pdfrwt>
<pdfrwt beam="2">  1       -1 0.32625084E-02 0.11719978E+03</pdfrwt>
<totfact> 0.12227522E+04</totfact>
</mgrwt>
</event>
<event>
 8    1  0.6836165E-004  0.1001247E+03  0.7546771E-02  0.1286202E+00
          3   -1    0    0  501    0  0.00000000000E+00  0.00000000000E+00  0.62989556916E+03  0.62989556916E+03  0.00000000000E+00 0. -1.
         -3   -1    0    0    0  501 -0.00000000000E+00 -0.00000000000E+00 -0.15879502015E+02  0.15879502015E+02  0.00000000000E+00 0.  1.
         23    2    1    2    0    0 -0.12935845091E+02 -0.89768849108E+00  0.18642613734E+03  0.20661894127E+03  0.88139323083E+02 0.  0.
         23    2    1    2    0    0  0.12935845091E+02  0.89768849108E+00  0.42758992981E+03  0.43915612991E+03  0.99281500960E+02 0.  0.
          5    1    4    4  502    0  0.98384953987E+01  0.49718845077E+02  0.20878009349E+03  0.21489526981E+03  0.47000000000E+01 0. -1.
         -5    1    3    3    0  503 -0.83798798252E+01  0.20235525066E+02  0.38765238301E+01  0.22733594032E+02  0.47000000000E+01 0.  1.
          5    1    3    3  503    0 -0.45559652657E+01 -0.21133213558E+02  0.18254961351E+03  0.18388534724E+03  0.47000000000E+01 0. -1.
         -5    1    4    4    0  502  0.30973496923E+01 -0.48821156586E+02  0.21880983631E+03  0.22426086010E+03  0.47000000000E+01 0.  1.
<mgrwt>
<rscale>  0 0.97243558E+02</rscale>
<asrwt>0</asrwt>
<pdfrwt beam="1">  1        3 0.96906991E-01 0.10012471E+03</pdfrwt>
<pdfrwt beam="2">  1       -3 0.24430008E-02 0.10012471E+03</pdfrwt>
<totfact> 0.14874715E+03</totfact>
</mgrwt>
</event>
<event>
 8    1  0.6836165E-004  0.1018831E+03  0.7546771E-02  0.1276738E+00
          2   -1    0    0  501    0  0.00000000000E+00  0.00000000000E+00  0.79723985075E+03  0.79723985075E+03  0.00000000000E+00 0. -1.
         -2   -1    0    0    0  501 -0.00000000000E+00 -0.00000000000E+00 -0.13426467026E+02  0.13426467026E+02  0.00000000000E+00 0.  1.
         23    2    1    2    0    0  0.23974113358E+02 -0.36175230886E+02  0.31544271189E+03  0.33148796739E+03  0.92177885630E+02 0.  0.
         23    2    1    2    0    0 -0.23974113358E+02  0.36175230886E+02  0.46837067183E+03  0.47917835038E+03  0.91418815363E+02 0.  0.
          5    1    3    3  502    0 -0.49259872721E+01 -0.40276155022E+02  0.28884544608E+03  0.29171941268E+03  0.47000000000E+01 0. -1.
         -5    1    4    4    0  503 -0.33981100855E+02  0.62034647311E+02  0.28612918212E+03  0.29477959825E+03  0.47000000000E+01 0.  1.
          5    1    4    4  503    0  0.10006987497E+02 -0.25859416426E+02  0.18224148971E+03  0.18439875213E+03  0.47000000000E+01 0. -1.
         -5    1    3    3    0  502  0.28900100630E+02  0.41009241361E+01  0.26597265814E+02  0.39768554713E+02  0.47000000000E+01 0.  1.
<mgrwt>
<rscale>  0 0.10171111E+03</rscale>
<asrwt>0</asrwt>
<pdfrwt beam="1">  1        2 0.12265225E+00 0.10188311E+03</pdfrwt>
<pdfrwt beam="2">  1       -2 0.20656109E-02 0.10188311E+03</pdfrwt>
<totfact> 0.24215019E+04</totfact>
</mgrwt>
</event>
<event>
 8    1  0.6836165E-004  0.2834501E+03  0.7546771E-02  0.1095643E+00
          2   -1    0    0  501    0  0.00000000000E+00  0.00000000000E+00  0.24954226309E+04  0.24954226309E+04  0.00000000000E+00 0. -1.
         -2   -1    0    0    0  501 -0.00000000000E+00 -0.00000000000E+00 -0.30949455566E+02  0.30949455566E+02  0.00000000000E+00 0.  1.
         23    2    1    2    0    0 -0.78681895734E+02 -0.24166018304E+03  0.10923801710E+04  0.11253070688E+04  0.91820892977E+02 0.  0.
         23    2    1    2    0    0  0.78681895734E+02  0.24166018304E+03  0.13720930043E+04  0.14010650176E+04  0.12551289300E+03 0.  0.
          5    1    3    3  502    0 -0.92928293559E+02 -0.16407522748E+03  0.83650959775E+03  0.85751195044E+03  0.47000000000E+01 0. -1.
         -5    1    4    4    0  503  0.49989961016E+02  0.58980899537E+02  0.20018987631E+03  0.21465278775E+03  0.47000000000E+01 0. -1.
          5    1    4    4  503    0  0.28691934719E+02  0.18267928351E+03  0.11719031280E+04  0.11864122299E+04  0.47000000000E+01 0. -1.
         -5    1    3    3    0  502  0.14246397825E+02 -0.77584955569E+02  0.25587057327E+03  0.26779511841E+03  0.47000000000E+01 0.  1.
<mgrwt>
<rscale>  0 0.28008437E+03</rscale>
<asrwt>0</asrwt>
<pdfrwt beam="1">  1        2 0.38391102E+00 0.28345012E+03</pdfrwt>
<pdfrwt beam="2">  1       -2 0.47614567E-02 0.28345012E+03</pdfrwt>
<totfact> 0.84923498E+02</totfact>
</mgrwt>
</event>
<event>
 8    1  0.6836165E-004  0.9476756E+02  0.7546771E-02  0.1292365E+00
          1   -1    0    0  501    0  0.00000000000E+00  0.00000000000E+00  0.11427465369E+03  0.11427465369E+03  0.00000000000E+00 0. -1.
         -1   -1    0    0    0  501 -0.00000000000E+00 -0.00000000000E+00 -0.97002459608E+02  0.97002459608E+02  0.00000000000E+00 0.  1.
         23    2    1    2    0    0  0.86371363663E+01  0.66327494600E+01 -0.38535341262E+02  0.10230279841E+03  0.94139771327E+02 0.  0.
         23    2    1    2    0    0 -0.86371363663E+01 -0.66327494600E+01  0.55807535348E+02  0.10897431490E+03  0.92964115740E+02 0.  0.
          5    1    4    4  502    0  0.30064755123E+02 -0.20167653474E+02  0.56999836911E+02  0.67688220209E+02  0.47000000000E+01 0. -1.
         -5    1    4    4    0  502 -0.38701891489E+02  0.13534904014E+02 -0.11923015623E+01  0.41286094687E+02  0.47000000000E+01 0.  1.
          5    1    3    3  503    0  0.30302932792E+02  0.31345714033E+02  0.85629208290E+01  0.44679247276E+02  0.47000000000E+01 0. -1.
         -5    1    3    3    0  503 -0.21665796426E+02 -0.24712964573E+02 -0.47098262091E+02  0.57623551129E+02  0.47000000000E+01 0.  1.
<mgrwt>
<rscale>  0 0.94474257E+02</rscale>
<asrwt>0</asrwt>
<pdfrwt beam="1">  1        1 0.17580716E-01 0.94767558E+02</pdfrwt>
<pdfrwt beam="2">  1       -1 0.14923455E-01 0.94767558E+02</pdfrwt>
<totfact> 0.89501863E+03</totfact>
</mgrwt>
</event>
<event>
 8    1  0.6836165E-004  0.9519307E+02  0.7546771E-02  0.1293825E+00
         -2   -1    0    0    0  501 -0.00000000000E+00  0.00000000000E+00  0.16861703604E+02  0.16861703604E+02  0.00000000000E+00 0.  1.
          2   -1    0    0  501    0  0.00000000000E+00 -0.00000000000E+00 -0.57943954048E+03  0.57943954048E+03  0.00000000000E+00 0. -1.
         23    2    1    2    0    0 -0.47547707216E+01 -0.26494199400E+02 -0.37900833469E+03  0.38951758355E+03  0.85744269135E+02 0.  0.
         23    2    1    2    0    0  0.47547707216E+01  0.26494199400E+02 -0.18356950219E+03  0.20678366053E+03  0.91308103045E+02 0.  0.
          5    1    4    4  502    0 -0.40894111758E+02 -0.18808305090E+01 -0.76814809231E+02  0.87169207964E+02  0.47000000000E+01 0. -1.
         -5    1    4    4    0  502  0.45648882480E+02  0.28375029909E+02 -0.10675469296E+03  0.11961445257E+03  0.47000000000E+01 0.  1.
          5    1    3    3  503    0 -0.43171061779E+02 -0.26882291644E+02 -0.20683054790E+03  0.21304310297E+03  0.47000000000E+01 0. -1.
         -5    1    3    3    0  503  0.38416291057E+02  0.38809224444E+00 -0.17217778679E+03  0.17647448058E+03  0.47000000000E+01 0.  1.
<mgrwt>
<rscale>  0 0.93833468E+02</rscale>
<asrwt>0</asrwt>
<pdfrwt beam="1">  1        2 0.89144554E-01 0.95193068E+02</pdfrwt>
<pdfrwt beam="2">  1       -2 0.25941080E-02 0.95193068E+02</pdfrwt>
<totfact> 0.25086987E+04</totfact>
</mgrwt>
</event>
<event>
 8    1  0.6836165E-004  0.9609510E+02  0.7546771E-02  0.1289877E+00
          3   -1    0    0  501    0  0.00000000000E+00  0.00000000000E+00  0.34782497268E+03  0.34782497268E+03  0.00000000000E+00 0. -1.
         -3   -1    0    0    0  501 -0.00000000000E+00 -0.00000000000E+00 -0.38371896924E+02  0.38371896924E+02  0.00000000000E+00 0.  1.
         23    2    1    2    0    0 -0.14861326954E+02  0.24383302258E+02  0.26330105206E+03  0.27959350233E+03  0.89608470918E+02 0.  0.
         23    2    1    2    0    0  0.14861326954E+02 -0.24383302258E+02  0.46152023695E+02  0.10660336727E+03  0.91754368589E+02 0.  0.
          5    1    3    3  502    0 -0.40104609166E+02 -0.14768403517E+02  0.16796884438E+03  0.17338427870E+03  0.47000000000E+01 0. -1.
         -5    1    4    4    0  503 -0.92281080755E+01  0.29046640319E+02 -0.15686942857E+01  0.30877436653E+02  0.47000000000E+01 0.  1.
          5    1    4    4  503    0  0.24089435029E+02 -0.53429942577E+02  0.47720717980E+02  0.75725930621E+02  0.47000000000E+01 0. -1.
         -5    1    3    3    0  502  0.25243282213E+02  0.39151705775E+02  0.95332207677E+02  0.10620922362E+03  0.47000000000E+01 0.  1.
<mgrwt>
<rscale>  0 0.95579263E+02</rscale>
<asrwt>0</asrwt>
<pdfrwt beam="1">  1        3 0.53511532E-01 0.96095102E+02</pdfrwt>
<pdfrwt beam="2">  1       -3 0.59033690E-02 0.96095102E+02</pdfrwt>
<totfact> 0.13175643E+03</totfact>
</mgrwt>
</event>
<event>
 8    1  0.6836165E-004  0.1093483E+03  0.7546771E-02  0.1262448E+00
         -2   -1    0    0    0  501 -0.00000000000E+00  0.00000000000E+00  0.11336545098E+03  0.11336545098E+03  0.00000000000E+00 0.  1.
          2   -1    0    0  501    0  0.00000000000E+00 -0.00000000000E+00 -0.17153045019E+03  0.17153045019E+03  0.00000000000E+00 0. -1.
         23    2    1    2    0    0 -0.34147851364E+02  0.45843997103E+02  0.60337139477E+02  0.12365133219E+03  0.91549624405E+02 0.  0.
         23    2    1    2    0    0  0.34147851364E+02 -0.45843997103E+02 -0.11850213868E+03  0.16124456898E+03  0.93216448825E+02 0.  0.
          5    1    4    4  502    0  0.88274146391E+01 -0.68178286643E+02 -0.10269047371E+03  0.12366739833E+03  0.47000000000E+01 0. -1.
         -5    1    4    4    0  502  0.25320436725E+02  0.22334289541E+02 -0.15811664973E+02  0.37577170655E+02  0.47000000000E+01 0.  1.
          5    1    3    3  503    0  0.16252151855E+02  0.30519502222E+02 -0.93895168670E+01  0.36136207366E+02  0.47000000000E+01 0. -1.
         -5    1    3    3    0  503 -0.50400003219E+02  0.15324494881E+02  0.69726656344E+02  0.87515124823E+02  0.47000000000E+01 0.  1.
<mgrwt>
<rscale>  0 0.10899223E+03</rscale>
<asrwt>0</asrwt>
<pdfrwt beam="1">  1        2 0.26389300E-01 0.10934832E+03</pdfrwt>
<pdfrwt beam="2">  1       -2 0.17440839E-01 0.10934832E+03</pdfrwt>
<totfact> 0.50620579E+03</totfact>
</mgrwt>
</event>
<event>
 8    1  0.6836165E-004  0.1040696E+03  0.7546771E-02  0.1271974E+00
         -2   -1    0    0    0  501 -0.00000000000E+00  0.00000000000E+00  0.16429100294E+03  0.16429100294E+03  0.00000000000E+00 0.  1.
          2   -1    0    0  501    0  0.00000000000E+00 -0.00000000000E+00 -0.72406037279E+02  0.72406037279E+02  0.00000000000E+00 0. -1.
         23    2    1    2    0    0 -0.50124611682E+02  0.11002432935E+02  0.81388847873E+02  0.13209949407E+03  0.90512991052E+02 0.  0.
         23    2    1    2    0    0  0.50124611682E+02 -0.11002432935E+02  0.10496117788E+02  0.10459754615E+03  0.90536997656E+02 0.  0.
          5    1    3    3  502    0 -0.13432602337E+02 -0.38575895332E+02  0.23392523730E+02  0.47305757289E+02  0.47000000000E+01 0. -1.
         -5    1    4    4    0  503 -0.18224480386E+02 -0.21113020393E+02 -0.13453671166E+02  0.31320641490E+02  0.47000000000E+01 0.  1.
          5    1    4    4  503    0  0.68349092068E+02  0.10110587459E+02  0.23949788954E+02  0.73276904657E+02  0.47000000000E+01 0. -1.
         -5    1    3    3    0  502 -0.36692009345E+02  0.49578328267E+02  0.57996324143E+02  0.84793736783E+02  0.47000000000E+01 0.  1.
<mgrwt>
<rscale>  0 0.10406436E+03</rscale>
<asrwt>0</asrwt>
<pdfrwt beam="1">  1        2 0.11139390E-01 0.10406958E+03</pdfrwt>
<pdfrwt beam="2">  1       -2 0.25275539E-01 0.10406958E+03</pdfrwt>
<totfact> 0.72153681E+03</totfact>
</mgrwt>
</event>
<event>
 8    1  0.6836165E-004  0.1024616E+03  0.7546771E-02  0.1279641E+00
         -2   -1    0    0    0  501 -0.00000000000E+00  0.00000000000E+00  0.46312907942E+03  0.46312907942E+03  0.00000000000E+00 0.  1.
          2   -1    0    0  501    0  0.00000000000E+00 -0.00000000000E+00 -0.20924590499E+02  0.20924590499E+02  0.00000000000E+00 0. -1.
         23    2    1    2    0    0 -0.10419245093E+01 -0.25640128105E+02  0.22492683481E+03  0.24382885071E+03  0.90564483337E+02 0.  0.
         23    2    1    2    0    0  0.10419245093E+01  0.25640128105E+02  0.21727765411E+03  0.24022481921E+03  0.99196184480E+02 0.  0.
          5    1    3    3  502    0 -0.31198979147E+02 -0.11044699928E+02  0.26829630292E+02  0.42863513131E+02  0.47000000000E+01 0. -1.
         -5    1    3    3    0  502  0.30157054638E+02 -0.14595428177E+02  0.19809720452E+03  0.20096533757E+03  0.47000000000E+01 0.  1.
          5    1    4    4  503    0 -0.28211421789E+02  0.39809954344E+02  0.19367215482E+03  0.19977915391E+03  0.47000000000E+01 0. -1.
         -5    1    4    4    0  503  0.29253346298E+02 -0.14169826239E+02  0.23605499290E+02  0.40445665306E+02  0.47000000000E+01 0.  1.
<mgrwt>
<rscale>  0 0.10031197E+03</rscale>
<asrwt>0</asrwt>
<pdfrwt beam="1">  1        2 0.32191681E-02 0.10246163E+03</pdfrwt>
<pdfrwt beam="2">  1       -2 0.71250620E-01 0.10246163E+03</pdfrwt>
<totfact> 0.48240472E+03</totfact>
</mgrwt>
</event>
<event>
 8    1  0.6836165E-004  0.1445808E+03  0.7546771E-02  0.1207391E+00
         -1   -1    0    0    0  501 -0.00000000000E+00  0.00000000000E+00  0.39166549323E+03  0.39166549323E+03  0.00000000000E+00 0.  1.
          1   -1    0    0  501    0  0.00000000000E+00 -0.00000000000E+00 -0.53749796739E+02  0.53749796739E+02  0.00000000000E+00 0. -1.
         23    2    1    2    0    0  0.10464694522E+03  0.42026265902E+02  0.19003113248E+03  0.23859786628E+03  0.89999557296E+02 0.  0.
         23    2    1    2    0    0 -0.10464694522E+03 -0.42026265902E+02  0.14788456401E+03  0.20681742368E+03  0.90478794740E+02 0.  0.
          5    1    3    3  502    0  0.78575852213E+02  0.58908071690E+02  0.18088864901E+03  0.20588132213E+03  0.47000000000E+01 0. -1.
         -5    1    3    3    0  502  0.26071093007E+02 -0.16881805788E+02  0.91424834689E+01  0.32716544152E+02  0.47000000000E+01 0.  1.
          5    1    4    4  503    0 -0.20283175479E+02 -0.43615537570E+02  0.96462751692E+02  0.10789288572E+03  0.47000000000E+01 0. -1.
         -5    1    4    4    0  503 -0.84363769741E+02  0.15892716682E+01  0.51421812316E+02  0.98924537963E+02  0.47000000000E+01 0.  1.
<mgrwt>
<rscale>  0 0.14450587E+03</rscale>
<asrwt>0</asrwt>
<pdfrwt beam="1">  1        1 0.82691997E-02 0.14458078E+03</pdfrwt>
<pdfrwt beam="2">  1       -1 0.60256228E-01 0.14458078E+03</pdfrwt>
<totfact> 0.23279059E+03</totfact>
</mgrwt>
</event>
<event>
 8    1  0.6836165E-004  0.9917124E+02  0.7546771E-02  0.1283186E+00
         -1   -1    0    0    0  501 -0.00000000000E+00  0.00000000000E+00  0.22788094036E+02  0.22788094036E+02  0.00000000000E+00 0.  1.
          1   -1    0    0  501    0  0.00000000000E+00 -0.00000000000E+00 -0.42268816047E+03  0.42268816047E+03  0.00000000000E+00 0. -1.
         23    2    1    2    0    0 -0.29501099381E+02 -0.27403048594E+02 -0.19652249896E+03  0.22012729985E+03  0.90629430125E+02 0.  0.
         23    2    1    2    0    0  0.29501099381E+02  0.27403048594E+02 -0.20337756748E+03  0.22534895466E+03  0.88308971664E+02 0.  0.
          5    1    4    4  502    0  0.50986103101E+02  0.90356890259E+01 -0.61160842102E+02  0.80274310911E+02  0.47000000000E+01 0. -1.
         -5    1    4    4    0  502 -0.21485003721E+02  0.18367359568E+02 -0.14221672537E+03  0.14507464375E+03  0.47000000000E+01 0.  1.
          5    1    3    3  503    0 -0.16099246207E+02  0.16661841971E+02 -0.64604171402E+01  0.24507747671E+02  0.47000000000E+01 0.  1.
         -5    1    3    3    0  503 -0.13401853174E+02 -0.44064890565E+02 -0.19006208182E+03  0.19561955218E+03  0.47000000000E+01 0. -1.
<mgrwt>
<rscale>  0 0.98637952E+02</rscale>
<asrwt>0</asrwt>
<pdfrwt beam="1">  1        1 0.65028949E-01 0.99171244E+02</pdfrwt>
<pdfrwt beam="2">  1       -1 0.35058606E-02 0.99171244E+02</pdfrwt>
<totfact> 0.15470010E+04</totfact>
</mgrwt>
</event>
<event>
 8    1  0.6836165E-004  0.1006622E+03  0.7546771E-02  0.1279428E+00
          1   -1    0    0  501    0  0.00000000000E+00  0.00000000000E+00  0.74990325755E+03  0.74990325755E+03  0.00000000000E+00 0. -1.
         -1   -1    0    0    0  501 -0.00000000000E+00 -0.00000000000E+00 -0.18119312024E+02  0.18119312024E+02  0.00000000000E+00 0.  1.
         23    2    1    2    0    0  0.39080243489E+02 -0.26761015219E+02  0.56362334830E+03  0.57254183159E+03  0.88822591791E+02 0.  0.
         23    2    1    2    0    0 -0.39080243489E+02  0.26761015219E+02  0.16816059723E+03  0.19548073799E+03  0.87700143068E+02 0.  0.
          5    1    3    3  502    0 -0.81626339226E+01 -0.40643672420E+02  0.38307779546E+03  0.38534299536E+03  0.47000000000E+01 0. -1.
         -5    1    4    4    0  503  0.19603727185E+02  0.33606194115E+02  0.52441646401E+02  0.65466775388E+02  0.47000000000E+01 0.  1.
          5    1    4    4  503    0 -0.58683970675E+02 -0.68451788959E+01  0.11571895083E+03  0.13001396260E+03  0.47000000000E+01 0. -1.
         -5    1    3    3    0  502  0.47242877412E+02  0.13882657201E+02  0.18054555283E+03  0.18719883623E+03  0.47000000000E+01 0.  1.
<mgrwt>
<rscale>  0 0.10041398E+03</rscale>
<asrwt>0</asrwt>
<pdfrwt beam="1">  1        1 0.11536971E+00 0.10066216E+03</pdfrwt>
<pdfrwt beam="2">  1       -1 0.27875870E-02 0.10066216E+03</pdfrwt>
<totfact> 0.10050119E+04</totfact>
</mgrwt>
</event>
<event>
 8    1  0.6836165E-004  0.1322028E+03  0.7546771E-02  0.1224774E+00
         -3   -1    0    0    0  501 -0.00000000000E+00  0.00000000000E+00  0.17151429975E+03  0.17151429975E+03  0.00000000000E+00 0.  1.
          3   -1    0    0  501    0  0.00000000000E+00 -0.00000000000E+00 -0.11364409968E+03  0.11364409968E+03  0.00000000000E+00 0. -1.
         23    2    1    2    0    0 -0.81215344175E+02 -0.47836614184E+02  0.77123953347E+02  0.15305450940E+03  0.92700080274E+02 0.  0.
         23    2    1    2    0    0  0.81215344175E+02  0.47836614184E+02 -0.19253753274E+02  0.13210389003E+03  0.90534286102E+02 0.  0.
          5    1    3    3  502    0 -0.21211209207E+02  0.25246707430E+02  0.38217594006E+02  0.50695030562E+02  0.47000000000E+01 0. -1.
         -5    1    3    3    0  502 -0.60004134968E+02 -0.73083321615E+02  0.38906359341E+02  0.10235947884E+03  0.47000000000E+01 0.  1.
          5    1    4    4  503    0  0.56616589540E+02  0.59887718172E+01 -0.48757707687E+02  0.75104644716E+02  0.47000000000E+01 0. -1.
         -5    1    4    4    0  503  0.24598754635E+02  0.41847842367E+02  0.29503954413E+02  0.56999245314E+02  0.47000000000E+01 0.  1.
<mgrwt>
<rscale>  0 0.13182379E+03</rscale>
<asrwt>0</asrwt>
<pdfrwt beam="1">  1        3 0.17483708E-01 0.13220279E+03</pdfrwt>
<pdfrwt beam="2">  1       -3 0.26386816E-01 0.13220279E+03</pdfrwt>
<totfact> 0.89005983E+02</totfact>
</mgrwt>
</event>
<event>
 8    1  0.6836165E-004  0.1101838E+03  0.7546771E-02  0.1260307E+00
         -1   -1    0    0    0  501 -0.00000000000E+00  0.00000000000E+00  0.32274858096E+02  0.32274858096E+02  0.00000000000E+00 0.  1.
          1   -1    0    0  501    0  0.00000000000E+00 -0.00000000000E+00 -0.37737584481E+03  0.37737584481E+03  0.00000000000E+00 0. -1.
         23    2    1    2    0    0 -0.20285941639E+02  0.57363510646E+02 -0.18652363656E+03  0.21655165272E+03  0.91659475885E+02 0.  0.
         23    2    1    2    0    0  0.20285941639E+02 -0.57363510646E+02 -0.15857735016E+03  0.19309905018E+03  0.91860630402E+02 0.  0.
          5    1    4    4  502    0  0.48728650637E+02 -0.63972057617E+02 -0.11329285972E+03  0.13901175350E+03  0.47000000000E+01 0. -1.
         -5    1    4    4    0  502 -0.28442708998E+02  0.66085469707E+01 -0.45284490439E+02  0.54087296683E+02  0.47000000000E+01 0.  1.
          5    1    3    3  503    0 -0.14939390092E+02 -0.21327750110E+02 -0.77606267579E+02  0.81993176964E+02  0.47000000000E+01 0. -1.
         -5    1    3    3    0  503 -0.53465515466E+01  0.78691260756E+02 -0.10891736898E+03  0.13455847576E+03  0.47000000000E+01 0.  1.
<mgrwt>
<rscale>  0 0.11014185E+03</rscale>
<asrwt>0</asrwt>
<pdfrwt beam="1">  1        1 0.58057827E-01 0.11018379E+03</pdfrwt>
<pdfrwt beam="2">  1       -1 0.49653624E-02 0.11018379E+03</pdfrwt>
<totfact> 0.10822115E+04</totfact>
</mgrwt>
</event>
<event>
 8    1  0.6836165E-004  0.9348817E+02  0.7546771E-02  0.1294650E+00
         -1   -1    0    0    0  501 -0.00000000000E+00  0.00000000000E+00  0.16492510179E+03  0.16492510179E+03  0.00000000000E+00 0.  1.
          1   -1    0    0  501    0  0.00000000000E+00 -0.00000000000E+00 -0.29264772226E+03  0.29264772226E+03  0.00000000000E+00 0. -1.
         23    2    1    2    0    0  0.14712723899E+02 -0.77799374908E+01  0.14318673998E+03  0.17100433120E+03  0.91994821111E+02 0.  0.
         23    2    1    2    0    0 -0.14712723899E+02  0.77799374908E+01 -0.27090936045E+03  0.28656849285E+03  0.91938174017E+02 0.  0.
          5    1    3    3  502    0  0.35225747013E+02  0.20819505476E+02  0.26359100910E+02  0.48899869751E+02  0.47000000000E+01 0. -1.
         -5    1    4    4    0  503  0.47288518484E+01 -0.34408251906E+02 -0.51820469212E+02  0.62559898245E+02  0.47000000000E+01 0.  1.
          5    1    4    4  503    0 -0.19441575747E+02  0.42188189396E+02 -0.21908889124E+03  0.22400859461E+03  0.47000000000E+01 0. -1.
         -5    1    3    3    0  502 -0.20513023114E+02 -0.28599442967E+02  0.11682763907E+03  0.12210446145E+03  0.47000000000E+01 0.  1.
<mgrwt>
<rscale>  0 0.93474236E+02</rscale>
<asrwt>0</asrwt>
<pdfrwt beam="1">  1        1 0.45022726E-01 0.93488175E+02</pdfrwt>
<pdfrwt beam="2">  1       -1 0.25373093E-01 0.93488175E+02</pdfrwt>
<totfact> 0.12034748E+03</totfact>
</mgrwt>
</event>
<event>
 8    1  0.6836165E-004  0.1025870E+03  0.7546771E-02  0.1275320E+00
          2   -1    0    0  501    0  0.00000000000E+00  0.00000000000E+00  0.20132876664E+03  0.20132876664E+03  0.00000000000E+00 0. -1.
         -2   -1    0    0    0  501 -0.00000000000E+00 -0.00000000000E+00 -0.52641588799E+02  0.52641588799E+02  0.00000000000E+00 0.  1.
         23    2    1    2    0    0  0.47157673032E+02  0.12779367523E+02  0.89651795339E+02  0.13624074739E+03  0.90204980357E+02 0.  0.
         23    2    1    2    0    0 -0.47157673032E+02 -0.12779367523E+02  0.59035382498E+02  0.11772960805E+03  0.89375197141E+02 0.  0.
          5    1    3    3  502    0  0.28721133449E+02 -0.37059043112E+02  0.55912207044E+02  0.73120045675E+02  0.47000000000E+01 0. -1.
         -5    1    4    4    0  503 -0.68669565300E+02 -0.21505091695E+02  0.25118145634E+02  0.76360915443E+02  0.47000000000E+01 0.  1.
          5    1    4    4  503    0  0.21511892267E+02  0.87257241712E+01  0.33917236864E+02  0.41368692603E+02  0.47000000000E+01 0. -1.
         -5    1    3    3    0  502  0.18436539583E+02  0.49838410635E+02  0.33739588295E+02  0.63120701713E+02  0.47000000000E+01 0.  1.
<mgrwt>
<rscale>  0 0.10240432E+03</rscale>
<asrwt>0</asrwt>
<pdfrwt beam="1">  1        2 0.30973656E-01 0.10258702E+03</pdfrwt>
<pdfrwt beam="2">  1       -2 0.80987060E-02 0.10258702E+03</pdfrwt>
<totfact> 0.14326832E+04</totfact>
</mgrwt>
</event>
<event>
 8    1  0.6836165E-004  0.9799692E+02  0.7546771E-02  0.1290760E+00
         -1   -1    0    0    0  501 -0.00000000000E+00  0.00000000000E+00  0.95260656966E+02  0.95260656966E+02  0.00000000000E+00 0.  1.
          1   -1    0    0  501    0  0.00000000000E+00 -0.00000000000E+00 -0.45797907988E+03  0.45797907988E+03  0.00000000000E+00 0. -1.
         23    2    1    2    0    0  0.10206313296E+02 -0.77759641943E+01  0.64427843847E+02  0.11727891650E+03  0.97153295071E+02 0.  0.
         23    2    1    2    0    0 -0.10206313296E+02  0.77759641943E+01 -0.42714626676E+03  0.43596082034E+03  0.86274383318E+02 0.  0.
          5    1    4    4  502    0  0.32602469065E+02  0.46669806209E+01 -0.29658436858E+03  0.29844443266E+03  0.47000000000E+01 0. -1.
         -5    1    4    4    0  502 -0.42808782361E+02  0.31089835734E+01 -0.13056189818E+03  0.13751638768E+03  0.47000000000E+01 0.  1.
          5    1    3    3  503    0  0.23379205170E+02  0.39860361531E+02  0.19696185368E+02  0.50452605223E+02  0.47000000000E+01 0. -1.
         -5    1    3    3    0  503 -0.13172891874E+02 -0.47636325726E+02  0.44731658479E+02  0.66826311280E+02  0.47000000000E+01 0.  1.
<mgrwt>
<rscale>  0 0.95184769E+02</rscale>
<asrwt>0</asrwt>
<pdfrwt beam="1">  1        1 0.70458320E-01 0.97996924E+02</pdfrwt>
<pdfrwt beam="2">  1       -1 0.14655486E-01 0.97996924E+02</pdfrwt>
<totfact> 0.16532307E+03</totfact>
</mgrwt>
</event>
<event>
 8    1  0.6836165E-004  0.1290189E+03  0.7546771E-02  0.1230507E+00
         -1   -1    0    0    0  501 -0.00000000000E+00  0.00000000000E+00  0.36096718009E+03  0.36096718009E+03  0.00000000000E+00 0.  1.
          1   -1    0    0  501    0  0.00000000000E+00 -0.00000000000E+00 -0.10993750588E+03  0.10993750588E+03  0.00000000000E+00 0. -1.
         23    2    1    2    0    0  0.46878582490E+02 -0.72351406655E+02 -0.55100801779E+02  0.14029248147E+03  0.95987261959E+02 0.  0.
         23    2    1    2    0    0 -0.46878582490E+02  0.72351406655E+02  0.30613047600E+03  0.33061220450E+03  0.90311870162E+02 0.  0.
          5    1    4    4  502    0 -0.69104943347E+01  0.49135394465E+02  0.51089863645E+02  0.71374407798E+02  0.47000000000E+01 0. -1.
         -5    1    4    4    0  502 -0.39968088155E+02  0.23216012190E+02  0.25504061235E+03  0.25923779671E+03  0.47000000000E+01 0.  1.
          5    1    3    3  503    0  0.70901957564E+02 -0.70437458371E+02 -0.57869623006E+02  0.11558333096E+03  0.47000000000E+01 0. -1.
         -5    1    3    3    0  503 -0.24023375074E+02 -0.19139482837E+01  0.27688212265E+01  0.24709150511E+02  0.47000000000E+01 0.  1.
<mgrwt>
<rscale>  0 0.12796488E+03</rscale>
<asrwt>0</asrwt>
<pdfrwt beam="1">  1        1 0.16913463E-01 0.12901892E+03</pdfrwt>
<pdfrwt beam="2">  1       -1 0.55533412E-01 0.12901892E+03</pdfrwt>
<totfact> 0.10567549E+03</totfact>
</mgrwt>
</event>
<event>
 8    1  0.6836165E-004  0.1046152E+03  0.7546771E-02  0.1275556E+00
          2   -1    0    0  501    0  0.00000000000E+00  0.00000000000E+00  0.32228591319E+03  0.32228591319E+03  0.00000000000E+00 0. -1.
         -2   -1    0    0    0  501 -0.00000000000E+00 -0.00000000000E+00 -0.32563539369E+02  0.32563539369E+02  0.00000000000E+00 0.  1.
         23    2    1    2    0    0  0.25146349793E+02  0.74741981592E+01  0.18866561544E+03  0.21572914654E+03  0.10127264029E+03 0.  0.
         23    2    1    2    0    0 -0.25146349793E+02 -0.74741981592E+01  0.10105675839E+03  0.13912030603E+03  0.91944486443E+02 0.  0.
          5    1    3    3  502    0 -0.30704852409E+02 -0.11096555264E+02  0.23985293877E+02  0.40783646509E+02  0.47000000000E+01 0.  1.
         -5    1    3    3    0  502  0.55851202203E+02  0.18570753423E+02  0.16468032156E+03  0.17494550003E+03  0.47000000000E+01 0. -1.
          5    1    4    4  503    0 -0.12311660619E+02 -0.33253230028E+02  0.19664628709E+01  0.35823334166E+02  0.47000000000E+01 0. -1.
         -5    1    4    4    0  503 -0.12834689174E+02  0.25779031869E+02  0.99090295514E+02  0.10329697186E+03  0.47000000000E+01 0.  1.
<mgrwt>
<rscale>  0 0.10228839E+03</rscale>
<asrwt>0</asrwt>
<pdfrwt beam="1">  1        2 0.49582446E-01 0.10461525E+03</pdfrwt>
<pdfrwt beam="2">  1       -2 0.50097755E-02 0.10461525E+03</pdfrwt>
<totfact> 0.18046912E+04</totfact>
</mgrwt>
</event>
<event>
 8    1  0.6836165E-004  0.9465857E+02  0.7546771E-02  0.1292059E+00
          1   -1    0    0  501    0  0.00000000000E+00  0.00000000000E+00  0.10717426741E+03  0.10717426741E+03  0.00000000000E+00 0. -1.
         -1   -1    0    0    0  501 -0.00000000000E+00 -0.00000000000E+00 -0.10007160887E+03  0.10007160887E+03  0.00000000000E+00 0.  1.
         23    2    1    2    0    0 -0.23601549941E+02  0.68898721673E+01 -0.38702108490E+02  0.10226484366E+03  0.91409745372E+02 0.  0.
         23    2    1    2    0    0  0.23601549941E+02 -0.68898721673E+01  0.45804767031E+02  0.10498103262E+03  0.91205466002E+02 0.  0.
          5    1    4    4  502    0  0.20256241728E+02  0.13225662275E+02 -0.22605620637E+02  0.33441554329E+02  0.47000000000E+01 0. -1.
         -5    1    3    3    0  503  0.24053463546E+02 -0.68533880985E+01 -0.45351489355E+02  0.52003707788E+02  0.47000000000E+01 0.  1.
          5    1    3    3  503    0 -0.47655013487E+02  0.13743260266E+02  0.66493808653E+01  0.50261135871E+02  0.47000000000E+01 0. -1.
         -5    1    4    4    0  502  0.33453082125E+01 -0.20115534442E+02  0.68410387668E+02  0.71539478289E+02  0.47000000000E+01 0.  1.
<mgrwt>
<rscale>  0 0.94609219E+02</rscale>
<asrwt>0</asrwt>
<pdfrwt beam="1">  1        1 0.16488349E-01 0.94658571E+02</pdfrwt>
<pdfrwt beam="2">  1       -1 0.15395632E-01 0.94658571E+02</pdfrwt>
<totfact> 0.92504421E+03</totfact>
</mgrwt>
</event>
<event>
 8    1  0.6836165E-004  0.9470891E+02  0.7546771E-02  0.1291897E+00
         -2   -1    0    0    0  501 -0.00000000000E+00  0.00000000000E+00  0.10920537961E+03  0.10920537961E+03  0.00000000000E+00 0.  1.
          2   -1    0    0  501    0  0.00000000000E+00 -0.00000000000E+00 -0.15611979128E+03  0.15611979128E+03  0.00000000000E+00 0. -1.
         23    2    1    2    0    0  0.22936166114E+02 -0.34016363747E+01  0.67920029754E+02  0.11654573678E+03  0.91826681713E+02 0.  0.
         23    2    1    2    0    0 -0.22936166114E+02  0.34016363747E+01 -0.11483444143E+03  0.14877943412E+03  0.91710044337E+02 0.  0.
          5    1    4    4  502    0 -0.25603665919E+02 -0.29020346033E+02 -0.11954873047E+02  0.40776674483E+02  0.47000000000E+01 0. -1.
         -5    1    3    3    0  503  0.24016706720E+00  0.29414181598E+02  0.70247937552E+02  0.76302781664E+02  0.47000000000E+01 0.  1.
          5    1    3    3  503    0  0.22695999047E+02 -0.32815817973E+02 -0.23279077984E+01  0.40242955119E+02  0.47000000000E+01 0. -1.
         -5    1    4    4    0  502  0.26674998047E+01  0.32421982408E+02 -0.10287956838E+03  0.10800275963E+03  0.47000000000E+01 0.  1.
<mgrwt>
<rscale>  0 0.94680630E+02</rscale>
<asrwt>0</asrwt>
<pdfrwt beam="1">  1        2 0.24018429E-01 0.94708914E+02</pdfrwt>
<pdfrwt beam="2">  1       -2 0.16800828E-01 0.94708914E+02</pdfrwt>
<totfact> 0.59049475E+03</totfact>
</mgrwt>
</event>
<event>
 8    1  0.6836165E-004  0.1408344E+03  0.7546771E-02  0.1212613E+00
          1   -1    0    0  501    0  0.00000000000E+00  0.00000000000E+00  0.72634058670E+02  0.72634058670E+02  0.00000000000E+00 0. -1.
         -1   -1    0    0    0  501 -0.00000000000E+00 -0.00000000000E+00 -0.28967377202E+03  0.28967377202E+03  0.00000000000E+00 0.  1.
         23    2    1    2    0    0 -0.70387998760E+02 -0.79718225153E+02 -0.15525879599E+03  0.20961781268E+03  0.92330211019E+02 0.  0.
         23    2    1    2    0    0  0.70387998760E+02  0.79718225153E+02 -0.61780917353E+02  0.15269001801E+03  0.90486982819E+02 0.  0.
          5    1    4    4  502    0  0.44355915489E+02  0.20861849173E+02  0.15861814152E+02  0.51733462459E+02  0.47000000000E+01 0. -1.
         -5    1    3    3    0  503 -0.32454276858E+02  0.16909237641E+02 -0.42455199689E+02  0.56247101122E+02  0.47000000000E+01 0.  1.
          5    1    3    3  503    0 -0.37933721902E+02 -0.96627462794E+02 -0.11280359630E+03  0.15337071155E+03  0.47000000000E+01 0. -1.
         -5    1    4    4    0  502  0.26032083271E+02  0.58856375980E+02 -0.77642731506E+02  0.10095655555E+03  0.47000000000E+01 0.  1.
<mgrwt>
<rscale>  0 0.14053309E+03</rscale>
<asrwt>0</asrwt>
<pdfrwt beam="1">  1        1 0.11174470E-01 0.14083442E+03</pdfrwt>
<pdfrwt beam="2">  1       -1 0.44565197E-01 0.14083442E+03</pdfrwt>
<totfact> 0.27155117E+03</totfact>
</mgrwt>
</event>
<event>
 8    1  0.6836165E-004  0.9301348E+02  0.7546771E-02  0.1296134E+00
         -3   -1    0    0    0  501 -0.00000000000E+00  0.00000000000E+00  0.34141010369E+03  0.34141010369E+03  0.00000000000E+00 0.  1.
          3   -1    0    0  501    0  0.00000000000E+00 -0.00000000000E+00 -0.29756762857E+02  0.29756762857E+02  0.00000000000E+00 0. -1.
         23    2    1    2    0    0 -0.14446237999E+02  0.10617917815E+02  0.83274494879E+02  0.12484449598E+03  0.91269231989E+02 0.  0.
         23    2    1    2    0    0  0.14446237999E+02 -0.10617917815E+02  0.22837884596E+03  0.24632237057E+03  0.90533855503E+02 0.  0.
          5    1    4    4  502    0  0.49156216198E+02 -0.13825070731E+02  0.90403710043E+02  0.10393453209E+03  0.47000000000E+01 0. -1.
         -5    1    3    3    0  503 -0.46527412716E+02 -0.19007432027E+01  0.76122894892E+02  0.89359935572E+02  0.47000000000E+01 0.  1.
          5    1    3    3  503    0  0.32081174717E+02  0.12518661017E+02  0.71515999863E+01  0.35484560406E+02  0.47000000000E+01 0. -1.
         -5    1    4    4    0  502 -0.34709978199E+02  0.32071529158E+01  0.13797513592E+03  0.14238783848E+03  0.47000000000E+01 0.  1.
<mgrwt>
<rscale>  0 0.92832579E+02</rscale>
<asrwt>0</asrwt>
<pdfrwt beam="1">  1        3 0.45779638E-02 0.93013476E+02</pdfrwt>
<pdfrwt beam="2">  1       -3 0.52524629E-01 0.93013476E+02</pdfrwt>
<totfact> 0.20256010E+03</totfact>
</mgrwt>
</event>
<event>
 8    1  0.6836165E-004  0.1573898E+03  0.7546771E-02  0.1196004E+00
          4   -1    0    0  501    0  0.00000000000E+00  0.00000000000E+00  0.68373153361E+02  0.68373153361E+02  0.00000000000E+00 0. -1.
         -4   -1    0    0    0  501 -0.00000000000E+00 -0.00000000000E+00 -0.49133337416E+03  0.49133337416E+03  0.00000000000E+00 0.  1.
         23    2    1    2    0    0  0.69987343845E+02  0.88086991895E+02 -0.58087446904E+02  0.16776682451E+03  0.11006366102E+03 0.  0.
         23    2    1    2    0    0 -0.69987343845E+02 -0.88086991895E+02 -0.36487277389E+03  0.39193970301E+03  0.88470578325E+02 0.  0.
          5    1    3    3  502    0  0.90997952744E+02  0.52976434016E+02 -0.12195380083E+02  0.10610347431E+03  0.47000000000E+01 0. -1.
         -5    1    4    4    0  503  0.16424714202E+02 -0.40774758600E+02 -0.12467741497E+03  0.13228340780E+03  0.47000000000E+01 0.  1.
          5    1    4    4  503    0 -0.86412058046E+02 -0.47312233295E+02 -0.24019535892E+03  0.25965629521E+03  0.47000000000E+01 0. -1.
         -5    1    3    3    0  502 -0.21010608899E+02  0.35110557878E+02 -0.45892066820E+02  0.61663350200E+02  0.47000000000E+01 0.  1.
<mgrwt>
<rscale>  0 0.15369541E+03</rscale>
<asrwt>0</asrwt>
<pdfrwt beam="1">  1        4 0.10518946E-01 0.15738982E+03</pdfrwt>
<pdfrwt beam="2">  1       -4 0.75589751E-01 0.15738982E+03</pdfrwt>
<totfact> 0.19226079E+02</totfact>
</mgrwt>
</event>
<event>
 8    1  0.6836165E-004  0.1100310E+03  0.7546771E-02  0.1265082E+00
          1   -1    0    0  501    0  0.00000000000E+00  0.00000000000E+00  0.86442361627E+03  0.86442361627E+03  0.00000000000E+00 0. -1.
         -1   -1    0    0    0  501 -0.00000000000E+00 -0.00000000000E+00 -0.13380115009E+02  0.13380115009E+02  0.00000000000E+00 0.  1.
         23    2    1    2    0    0  0.43627557989E+02  0.29782726494E+01  0.31865286320E+03  0.33416174017E+03  0.90621120305E+02 0.  0.
         23    2    1    2    0    0 -0.43627557989E+02 -0.29782726494E+01  0.53239063806E+03  0.54364199111E+03  0.10096825776E+03 0.  0.
          5    1    3    3  502    0 -0.15358382250E+02 -0.23941027610E+02  0.49630060587E+02  0.57395867640E+02  0.47000000000E+01 0. -1.
         -5    1    3    3    0  502  0.58985940239E+02  0.26919300260E+02  0.26902280262E+03  0.27676587253E+03  0.47000000000E+01 0.  1.
          5    1    4    4  503    0 -0.68305781576E+02 -0.18036580927E+02  0.46210716811E+03  0.46749986403E+03  0.47000000000E+01 0. -1.
         -5    1    4    4    0  503  0.24678223587E+02  0.15058308278E+02  0.70283469957E+02  0.76142127083E+02  0.47000000000E+01 0.  1.
<mgrwt>
<rscale>  0 0.10759884E+03</rscale>
<asrwt>0</asrwt>
<pdfrwt beam="1">  1        1 0.13298820E+00 0.11003101E+03</pdfrwt>
<pdfrwt beam="2">  1       -1 0.20584799E-02 0.11003101E+03</pdfrwt>
<totfact> 0.12647879E+04</totfact>
</mgrwt>
</event>
<event>
 8    1  0.6836165E-004  0.9491752E+02  0.7546771E-02  0.1291517E+00
         -1   -1    0    0    0  501 -0.00000000000E+00  0.00000000000E+00  0.11620122367E+03  0.11620122367E+03  0.00000000000E+00 0.  1.
          1   -1    0    0  501    0  0.00000000000E+00 -0.00000000000E+00 -0.86177179481E+02  0.86177179481E+02  0.00000000000E+00 0. -1.
         23    2    1    2    0    0 -0.23464757024E+02  0.64415150353E+01 -0.17430691643E+02  0.96504735323E+02  0.91745555699E+02 0.  0.
         23    2    1    2    0    0  0.23464757024E+02 -0.64415150353E+01  0.47454735835E+02  0.10587366783E+03  0.91461432574E+02 0.  0.
          5    1    4    4  502    0  0.46190484203E+02 -0.14224911334E+02 -0.41721843006E+01  0.48738137585E+02  0.47000000000E+01 0.  1.
         -5    1    4    4    0  502 -0.22725727180E+02  0.77833962984E+01  0.51626920135E+02  0.57135530246E+02  0.47000000000E+01 0. -1.
          5    1    3    3  503    0  0.22437687632E+01 -0.34261527476E+02 -0.30752873345E+02  0.46332666470E+02  0.47000000000E+01 0. -1.
         -5    1    3    3    0  503 -0.25708525787E+02  0.40703042511E+02  0.13322181702E+02  0.50172068854E+02  0.47000000000E+01 0.  1.
<mgrwt>
<rscale>  0 0.94848792E+02</rscale>
<asrwt>0</asrwt>
<pdfrwt beam="1">  1        1 0.13258028E-01 0.94917516E+02</pdfrwt>
<pdfrwt beam="2">  1       -1 0.17877111E-01 0.94917516E+02</pdfrwt>
<totfact> 0.96847499E+03</totfact>
</mgrwt>
</event>
<event>
 8    1  0.6836165E-004  0.1114304E+03  0.7546771E-02  0.1260704E+00
          1   -1    0    0  501    0  0.00000000000E+00  0.00000000000E+00  0.52502511287E+03  0.52502511287E+03  0.00000000000E+00 0. -1.
         -1   -1    0    0    0  501 -0.00000000000E+00 -0.00000000000E+00 -0.31455467444E+02  0.31455467444E+02  0.00000000000E+00 0.  1.
         23    2    1    2    0    0  0.44067473658E+02 -0.22107782968E+02  0.10244286164E+03  0.15136468101E+03  0.99930127857E+02 0.  0.
         23    2    1    2    0    0 -0.44067473658E+02  0.22107782968E+02  0.39112678379E+03  0.40511589931E+03  0.93316850426E+02 0.  0.
          5    1    3    3  502    0  0.29950534096E+02  0.33680360236E+02  0.74549845179E+02  0.87242022985E+02  0.47000000000E+01 0. -1.
         -5    1    3    3    0  502  0.14116939561E+02 -0.55788143204E+02  0.27893016463E+02  0.64122658025E+02  0.47000000000E+01 0.  1.
          5    1    4    4  503    0 -0.72193709047E+02  0.20348912196E+02  0.31396803353E+03  0.32283746055E+03  0.47000000000E+01 0. -1.
         -5    1    4    4    0  503  0.28126235390E+02  0.17588707725E+01  0.77158750255E+02  0.82278438758E+02  0.47000000000E+01 0.  1.
<mgrwt>
<rscale>  0 0.10992770E+03</rscale>
<asrwt>0</asrwt>
<pdfrwt beam="1">  1        1 0.80773088E-01 0.11143037E+03</pdfrwt>
<pdfrwt beam="2">  1       -1 0.48393031E-02 0.11143037E+03</pdfrwt>
<totfact> 0.73922226E+03</totfact>
</mgrwt>
</event>
<event>
 8    1  0.6836165E-004  0.1316144E+03  0.7546771E-02  0.1225363E+00
          2   -1    0    0  501    0  0.00000000000E+00  0.00000000000E+00  0.77395632733E+03  0.77395632733E+03  0.00000000000E+00 0. -1.
         -2   -1    0    0    0  501 -0.00000000000E+00 -0.00000000000E+00 -0.23663700274E+02  0.23663700274E+02  0.00000000000E+00 0.  1.
         23    2    1    2    0    0 -0.30028930868E+02  0.89954961515E+02  0.47364977924E+03  0.49159582317E+03  0.91261756483E+02 0.  0.
         23    2    1    2    0    0  0.30028930868E+02 -0.89954961515E+02  0.27664284781E+03  0.30602420443E+03  0.90143866458E+02 0.  0.
          5    1    4    4  502    0 -0.27435512829E+02 -0.54769578593E+02  0.15763808775E+03  0.16918708820E+03  0.47000000000E+01 0. -1.
         -5    1    3    3    0  503  0.27542295060E+02  0.43085582616E+01  0.10676986121E+03  0.11044924153E+03  0.47000000000E+01 0.  1.
          5    1    3    3  503    0 -0.57571225928E+02  0.85646403253E+02  0.36687991803E+03  0.38114658164E+03  0.47000000000E+01 0. -1.
         -5    1    4    4    0  502  0.57464443697E+02 -0.35185382922E+02  0.11900476007E+03  0.13683711623E+03  0.47000000000E+01 0.  1.
<mgrwt>
<rscale>  0 0.13142077E+03</rscale>
<asrwt>0</asrwt>
<pdfrwt beam="1">  1        2 0.11907018E+00 0.13161436E+03</pdfrwt>
<pdfrwt beam="2">  1       -2 0.36405699E-02 0.13161436E+03</pdfrwt>
<totfact> 0.11203036E+04</totfact>
</mgrwt>
</event>
<event>
 7    1  0.6836165E-004  0.1697378E+03  0.7546771E-02  0.1206368E+00
         -1   -1    0    0    0  501 -0.00000000000E+00  0.00000000000E+00  0.34429672130E+03  0.34429672130E+03  0.00000000000E+00 0.  1.
          1   -1    0    0  501    0  0.00000000000E+00 -0.00000000000E+00 -0.54064821971E+02  0.54064821971E+02  0.00000000000E+00 0. -1.
         23    2    1    2    0    0 -0.13798413270E+02  0.33187247018E+01  0.16105931606E+03  0.18506254928E+03  0.90036846415E+02 0.  0.
          5    1    1    2  502    0  0.72444125757E+02 -0.36089268674E+02  0.12073306358E+03  0.14542747096E+03  0.47000000000E+01 0. -1.
         -5    1    1    2    0  502 -0.58645712487E+02  0.32770543972E+02  0.84395196867E+01  0.67871523026E+02  0.47000000000E+01 0.  1.
          5    1    3    3  503    0  0.32635627288E+02  0.22640490911E+02  0.60442928080E+02  0.72478366097E+02  0.47000000000E+01 0. -1.
         -5    1    3    3    0  503 -0.46434040558E+02 -0.19321766209E+02  0.10061638798E+03  0.11258418318E+03  0.47000000000E+01 0.  1.
<mgrwt>
<rscale>  0 0.14530186E+03</rscale>
<asrwt>0</asrwt>
<pdfrwt beam="1">  1        1 0.83176651E-02 0.16973775E+03</pdfrwt>
<pdfrwt beam="2">  1       -1 0.52968725E-01 0.16973775E+03</pdfrwt>
<totfact> 0.29655254E+03</totfact>
</mgrwt>
</event>
<event>
 7    1  0.6836165E-004  0.1548944E+03  0.7546771E-02  0.1208126E+00
         -2   -1    0    0    0  501 -0.00000000000E+00  0.00000000000E+00  0.81006693627E+02  0.81006693627E+02  0.00000000000E+00 0.  1.
          2   -1    0    0  501    0  0.00000000000E+00 -0.00000000000E+00 -0.25780073952E+03  0.25780073952E+03  0.00000000000E+00 0. -1.
         23    2    1    2    0    0 -0.57445818122E+02  0.44397112634E+02 -0.17857932332E+02  0.11687732815E+03  0.89834728571E+02 0.  0.
          5    1    3    3  502    0 -0.15233487083E+02 -0.26032789135E+02  0.62742186393E+01  0.31164419751E+02  0.47000000000E+01 0. -1.
         -5    1    3    3    0  502 -0.42212331039E+02  0.70429901769E+02 -0.24132150972E+02  0.85712908395E+02  0.47000000000E+01 0.  1.
          5    1    1    2  503    0 -0.10174821225E+02 -0.73811033469E+02 -0.11128339620E+03  0.13400626821E+03  0.47000000000E+01 0. -1.
         -5    1    1    2    0  503  0.67620639347E+02  0.29413920836E+02 -0.47652717354E+02  0.87923836790E+02  0.47000000000E+01 0.  1.
<mgrwt>
<rscale>  0 0.14393852E+03</rscale>
<asrwt>0</asrwt>
<pdfrwt beam="1">  1        2 0.39661653E-01 0.15489443E+03</pdfrwt>
<pdfrwt beam="2">  1       -2 0.12462568E-01 0.15489443E+03</pdfrwt>
<totfact> 0.57717287E+03</totfact>
</mgrwt>
</event>
<event>
 8    1  0.6836165E-004  0.9753112E+02  0.7546771E-02  0.1286048E+00
          3   -1    0    0  501    0  0.00000000000E+00  0.00000000000E+00  0.11037029489E+03  0.11037029489E+03  0.00000000000E+00 0. -1.
         -3   -1    0    0    0  501 -0.00000000000E+00 -0.00000000000E+00 -0.22047137603E+03  0.22047137603E+03  0.00000000000E+00 0.  1.
         23    2    1    2    0    0  0.33340727697E+02  0.55194727224E+01 -0.18461207654E+03  0.20879161365E+03  0.91489072691E+02 0.  0.
         23    2    1    2    0    0 -0.33340727697E+02 -0.55194727224E+01  0.74510995396E+02  0.12205005727E+03  0.90566325652E+02 0.  0.
          5    1    4    4  502    0 -0.37627873953E+02 -0.43590714034E+02  0.49259494408E+02  0.75924930276E+02  0.47000000000E+01 0. -1.
         -5    1    4    4    0  502  0.42871462562E+01  0.38071241311E+02  0.25251500988E+02  0.46125126993E+02  0.47000000000E+01 0.  1.
          5    1    3    3  503    0 -0.16736567982E+00 -0.21344952251E+02 -0.29409546522E+01  0.22053893356E+02  0.47000000000E+01 0. -1.
         -5    1    3    3    0  503  0.33508093377E+02  0.26864424974E+02 -0.18167112189E+03  0.18673772029E+03  0.47000000000E+01 0.  1.
<mgrwt>
<rscale>  0 0.97314132E+02</rscale>
<asrwt>0</asrwt>
<pdfrwt beam="1">  1        3 0.16980045E-01 0.97531119E+02</pdfrwt>
<pdfrwt beam="2">  1       -3 0.33918673E-01 0.97531119E+02</pdfrwt>
<totfact> 0.56120890E+02</totfact>
</mgrwt>
</event>
<event>
 8    1  0.6836165E-004  0.9487730E+02  0.7546771E-02  0.1298880E+00
         -1   -1    0    0    0  501 -0.00000000000E+00  0.00000000000E+00  0.25328689812E+02  0.25328689812E+02  0.00000000000E+00 0.  1.
          1   -1    0    0  501    0  0.00000000000E+00 -0.00000000000E+00 -0.51260503766E+03  0.51260503766E+03  0.00000000000E+00 0. -1.
         23    2    1    2    0    0 -0.60089731275E+01 -0.16821578135E+02 -0.65048198292E+02  0.10517708477E+03  0.80696206916E+02 0.  0.
         23    2    1    2    0    0  0.60089731275E+01  0.16821578135E+02 -0.42222814955E+03  0.43275664270E+03  0.93180621781E+02 0.  0.
          5    1    4    4  502    0 -0.31533793482E+02  0.39031240991E+02 -0.24991953188E+03  0.25495034873E+03  0.47000000000E+01 0. -1.
         -5    1    4    4    0  502  0.37542766609E+02 -0.22209662856E+02 -0.17230861768E+03  0.17780629397E+03  0.47000000000E+01 0.  1.
          5    1    3    3  503    0 -0.26173972195E+02  0.17276587997E+02 -0.36003962871E+01  0.31915672743E+02  0.47000000000E+01 0. -1.
         -5    1    3    3    0  503  0.20164999067E+02 -0.34098166131E+02 -0.61447802005E+02  0.73261412027E+02  0.47000000000E+01 0.  1.
<mgrwt>
<rscale>  0 0.91660427E+02</rscale>
<asrwt>0</asrwt>
<pdfrwt beam="1">  1        1 0.78862315E-01 0.94877297E+02</pdfrwt>
<pdfrwt beam="2">  1       -1 0.38967214E-02 0.94877297E+02</pdfrwt>
<totfact> 0.10342597E+04</totfact>
</mgrwt>
</event>
<event>
 8    1  0.6836165E-004  0.1204581E+03  0.7546771E-02  0.1242708E+00
         -1   -1    0    0    0  501 -0.00000000000E+00  0.00000000000E+00  0.13775175938E+02  0.13775175938E+02  0.00000000000E+00 0.  1.
          1   -1    0    0  501    0  0.00000000000E+00 -0.00000000000E+00 -0.14025653037E+04  0.14025653037E+04  0.00000000000E+00 0. -1.
         23    2    1    2    0    0  0.77260521142E+02 -0.16787434954E+02 -0.33522980375E+03  0.35591626930E+03  0.89701523551E+02 0.  0.
         23    2    1    2    0    0 -0.77260521142E+02  0.16787434954E+02 -0.10535603240E+04  0.10604242104E+04  0.90879829714E+02 0.  0.
          5    1    3    3  502    0  0.23198768869E+02  0.28098391093E+02 -0.20104111202E+03  0.20437054871E+03  0.47000000000E+01 0. -1.
         -5    1    3    3    0  502  0.54061752273E+02 -0.44885826047E+02 -0.13418869174E+03  0.15154572059E+03  0.47000000000E+01 0.  1.
          5    1    4    4  503    0 -0.87833547226E+02  0.38352922117E+02 -0.83019411263E+03  0.83572126532E+03  0.47000000000E+01 0. -1.
         -5    1    4    4    0  503  0.10573026084E+02 -0.21565487163E+02 -0.22336621139E+03  0.22470294504E+03  0.47000000000E+01 0.  1.
<mgrwt>
<rscale>  0 0.12023585E+03</rscale>
<asrwt>0</asrwt>
<pdfrwt beam="1">  1        1 0.21577926E+00 0.12045808E+03</pdfrwt>
<pdfrwt beam="2">  1       -1 0.21192581E-02 0.12045808E+03</pdfrwt>
<totfact> 0.51197234E+03</totfact>
</mgrwt>
</event>
<event>
 7    1  0.6836165E-004  0.1605484E+03  0.7546771E-02  0.1203538E+00
          2   -1    0    0  501    0  0.00000000000E+00  0.00000000000E+00  0.65898270963E+03  0.65898270963E+03  0.00000000000E+00 0. -1.
         -2   -1    0    0    0  501 -0.00000000000E+00 -0.00000000000E+00 -0.33082119156E+02  0.33082119156E+02  0.00000000000E+00 0.  1.
         23    2    1    2    0    0 -0.11604564343E+01 -0.77574754275E+02  0.39193150662E+03  0.40830908258E+03  0.84183204222E+02 0.  0.
          5    1    1    2  502    0 -0.33310511820E+02  0.53004596719E+02  0.23283420399E+03  0.24114919452E+03  0.47000000000E+01 0. -1.
         -5    1    1    2    0  502  0.34470968254E+02  0.24570157556E+02  0.11348798684E+01  0.42606551691E+02  0.47000000000E+01 0.  1.
          5    1    3    3  503    0 -0.23929867227E+02 -0.61303056942E+02  0.13980444053E+03  0.15459002208E+03  0.47000000000E+01 0. -1.
         -5    1    3    3    0  503  0.22769410793E+02 -0.16271697333E+02  0.25212706610E+03  0.25371906050E+03  0.47000000000E+01 0.  1.
<mgrwt>
<rscale>  0 0.14753270E+03</rscale>
<asrwt>0</asrwt>
<pdfrwt beam="1">  1        2 0.10138195E+00 0.16054841E+03</pdfrwt>
<pdfrwt beam="2">  1       -2 0.50895573E-02 0.16054841E+03</pdfrwt>
<totfact> 0.83356174E+03</totfact>
</mgrwt>
</event>
<event>
 8    1  0.6836165E-004  0.1088686E+03  0.7546771E-02  0.1265766E+00
         -1   -1    0    0    0  501 -0.00000000000E+00  0.00000000000E+00  0.97435188579E+02  0.97435188579E+02  0.00000000000E+00 0.  1.
          1   -1    0    0  501    0  0.00000000000E+00 -0.00000000000E+00 -0.26182902685E+03  0.26182902685E+03  0.00000000000E+00 0. -1.
         23    2    1    2    0    0  0.46683400549E+02 -0.28008865595E+02  0.51377726554E+02  0.12038288000E+03  0.94279003879E+02 0.  0.
         23    2    1    2    0    0 -0.46683400549E+02  0.28008865595E+02 -0.21577156483E+03  0.23888133543E+03  0.86850951587E+02 0.  0.
          5    1    3    3  502    0  0.46319743816E+02  0.97938067405E+01 -0.95501500142E+01  0.48525587920E+02  0.47000000000E+01 0. -1.
         -5    1    4    4    0  503 -0.11139134003E+02  0.28393296808E+02 -0.13892864202E+02  0.33843186696E+02  0.47000000000E+01 0.  1.
          5    1    4    4  503    0 -0.35544266545E+02 -0.38443121335E+00 -0.20187870063E+03  0.20503814874E+03  0.47000000000E+01 0. -1.
         -5    1    3    3    0  502  0.36365673235E+00 -0.37802672335E+02  0.60927876568E+02  0.71857292079E+02  0.47000000000E+01 0.  1.
<mgrwt>
<rscale>  0 0.10724112E+03</rscale>
<asrwt>0</asrwt>
<pdfrwt beam="1">  1        1 0.40281388E-01 0.10886858E+03</pdfrwt>
<pdfrwt beam="2">  1       -1 0.14990029E-01 0.10886858E+03</pdfrwt>
<totfact> 0.32048287E+03</totfact>
</mgrwt>
</event>
<event>
 8    1  0.6836165E-004  0.1176369E+03  0.7546771E-02  0.1247910E+00
         -1   -1    0    0    0  501 -0.00000000000E+00  0.00000000000E+00  0.36090111338E+03  0.36090111338E+03  0.00000000000E+00 0.  1.
          1   -1    0    0  501    0  0.00000000000E+00 -0.00000000000E+00 -0.61230682202E+02  0.61230682202E+02  0.00000000000E+00 0. -1.
         23    2    1    2    0    0 -0.37772234950E+02 -0.65807279336E+02  0.27990730515E+03  0.30284631442E+03  0.87237898486E+02 0.  0.
         23    2    1    2    0    0  0.37772234950E+02  0.65807279336E+02  0.19763126022E+02  0.11928548116E+03  0.89894967150E+02 0.  0.
          5    1    3    3  502    0  0.34832465414E+01 -0.54437718667E+02  0.23228031957E+03  0.23864583608E+03  0.47000000000E+01 0.  1.
         -5    1    4    4    0  503  0.27057408255E+02 -0.16399052765E+02  0.16957477843E+02  0.36203291671E+02  0.47000000000E+01 0.  1.
          5    1    4    4  503    0  0.10714826696E+02  0.82206332102E+02  0.28056481796E+01  0.83082189490E+02  0.47000000000E+01 0. -1.
         -5    1    3    3    0  502 -0.41255481492E+02 -0.11369560670E+02  0.47626985585E+02  0.64200478338E+02  0.47000000000E+01 0. -1.
<mgrwt>
<rscale>  0 0.11712920E+03</rscale>
<asrwt>0</asrwt>
<pdfrwt beam="1">  1        1 0.94201052E-02 0.11763692E+03</pdfrwt>
<pdfrwt beam="2">  1       -1 0.55523247E-01 0.11763692E+03</pdfrwt>
<totfact> 0.22600239E+03</totfact>
</mgrwt>
</event>
<event>
 8    1  0.6836165E-004  0.1046925E+03  0.7546771E-02  0.1274300E+00
          1   -1    0    0  501    0  0.00000000000E+00  0.00000000000E+00  0.50162266292E+02  0.50162266292E+02  0.00000000000E+00 0. -1.
         -1   -1    0    0    0  501 -0.00000000000E+00 -0.00000000000E+00 -0.30785236982E+03  0.30785236982E+03  0.00000000000E+00 0.  1.
         23    2    1    2    0    0 -0.37993806673E+02  0.16176981698E+01 -0.23560974264E+03  0.25782255083E+03  0.97541635189E+02 0.  0.
         23    2    1    2    0    0  0.37993806673E+02 -0.16176981698E+01 -0.22080360888E+02  0.10019208529E+03  0.90026470129E+02 0.  0.
          5    1    4    4  502    0  0.53229642345E+02 -0.20651634734E+02  0.11497671957E+02  0.58430910499E+02  0.47000000000E+01 0. -1.
         -5    1    3    3    0  503  0.20510585275E+02  0.23306153604E+02 -0.14056916777E+03  0.14403347469E+03  0.47000000000E+01 0.  1.
          5    1    3    3  503    0 -0.58504391949E+02 -0.21688455434E+02 -0.95040574878E+02  0.11378907614E+03  0.47000000000E+01 0. -1.
         -5    1    4    4    0  502 -0.15235835672E+02  0.19033936564E+02 -0.33578032845E+02  0.41761174786E+02  0.47000000000E+01 0.  1.
<mgrwt>
<rscale>  0 0.10290637E+03</rscale>
<asrwt>0</asrwt>
<pdfrwt beam="1">  1        1 0.77172717E-02 0.10469249E+03</pdfrwt>
<pdfrwt beam="2">  1       -1 0.47361903E-01 0.10469249E+03</pdfrwt>
<totfact> 0.39109021E+03</totfact>
</mgrwt>
</event>
<event>
 7    1  0.6836165E-004  0.2092785E+03  0.7546771E-02  0.1153505E+00
          2   -1    0    0  501    0  0.00000000000E+00  0.00000000000E+00  0.11092485018E+03  0.11092485018E+03  0.00000000000E+00 0. -1.
         -2   -1    0    0    0  501 -0.00000000000E+00 -0.00000000000E+00 -0.43628445013E+03  0.43628445013E+03  0.00000000000E+00 0.  1.
         23    2    1    2    0    0  0.12970854828E+03 -0.62347656311E+01 -0.29538800637E+03  0.33579554388E+03  0.92959094140E+02 0.  0.
          5    1    1    2  502    0 -0.72143316790E+02 -0.57638242164E+02  0.39721318187E+02  0.10063149723E+03  0.47000000000E+01 0. -1.
         -5    1    1    2    0  502 -0.57565231494E+02  0.63873007795E+02 -0.69692911763E+02  0.11078225919E+03  0.47000000000E+01 0.  1.
          5    1    3    3  503    0  0.81770687300E+02 -0.47759737549E+02 -0.15542481092E+03  0.18206152719E+03  0.47000000000E+01 0. -1.
         -5    1    3    3    0  503  0.47937860983E+02  0.41524971918E+02 -0.13996319545E+03  0.15373401669E+03  0.47000000000E+01 0.  1.
<mgrwt>
<rscale>  0 0.19560082E+03</rscale>
<asrwt>0</asrwt>
<pdfrwt beam="1">  1        2 0.17065362E-01 0.20927847E+03</pdfrwt>
<pdfrwt beam="2">  1       -2 0.67120684E-01 0.20927847E+03</pdfrwt>
<totfact> 0.69525377E+02</totfact>
</mgrwt>
</event>
<event>
 8    1  0.6836165E-004  0.9440866E+02  0.7546771E-02  0.1293099E+00
         -2   -1    0    0    0  501 -0.00000000000E+00  0.00000000000E+00  0.90304959657E+01  0.90304959657E+01  0.00000000000E+00 0.  1.
          2   -1    0    0  501    0  0.00000000000E+00 -0.00000000000E+00 -0.11130950234E+04  0.11130950234E+04  0.00000000000E+00 0. -1.
         23    2    1    2    0    0 -0.10965124055E+02 -0.87255084028E+01 -0.75136515846E+03  0.75727313242E+03  0.93362879638E+02 0.  0.
         23    2    1    2    0    0  0.10965124055E+02  0.87255084028E+01 -0.35269936898E+03  0.36485238695E+03  0.92325786989E+02 0.  0.
          5    1    4    4  502    0  0.10313367769E+02  0.50173585932E+02 -0.20729141240E+03  0.21357802774E+03  0.47000000000E+01 0. -1.
         -5    1    4    4    0  502  0.65175628588E+00 -0.41448077529E+02 -0.14540795658E+03  0.15127435921E+03  0.47000000000E+01 0.  1.
          5    1    3    3  503    0  0.57147038566E+01  0.41024704247E+02 -0.34290267477E+03  0.34542729852E+03  0.47000000000E+01 0. -1.
         -5    1    3    3    0  503 -0.16679827912E+02 -0.49750212649E+02 -0.40846248369E+03  0.41184583390E+03  0.47000000000E+01 0.  1.
<mgrwt>
<rscale>  0 0.94151243E+02</rscale>
<asrwt>0</asrwt>
<pdfrwt beam="1">  1        2 0.17124547E+00 0.94408663E+02</pdfrwt>
<pdfrwt beam="2">  1       -2 0.13893064E-02 0.94408663E+02</pdfrwt>
<totfact> 0.27330609E+04</totfact>
</mgrwt>
</event>
<event>
 8    1  0.6836165E-004  0.9551023E+02  0.7546771E-02  0.1290701E+00
         -3   -1    0    0    0  501 -0.00000000000E+00  0.00000000000E+00  0.24070721498E+02  0.24070721498E+02  0.00000000000E+00 0.  1.
          3   -1    0    0  501    0  0.00000000000E+00 -0.00000000000E+00 -0.40662525014E+03  0.40662525014E+03  0.00000000000E+00 0. -1.
         23    2    1    2    0    0  0.10778691038E+01  0.21560929996E+02 -0.25092117896E+03  0.26806281889E+03  0.91816127746E+02 0.  0.
         23    2    1    2    0    0 -0.10778691038E+01 -0.21560929996E+02 -0.13163334968E+03  0.16263315275E+03  0.93038530306E+02 0.  0.
          5    1    4    4  502    0 -0.12643148776E+02  0.34987458146E+02 -0.55449392392E+02  0.66938005312E+02  0.47000000000E+01 0. -1.
         -5    1    3    3    0  503  0.23576630196E+02 -0.29654983431E+02 -0.99913230826E+02  0.10695802554E+03  0.47000000000E+01 0.  1.
          5    1    3    3  503    0 -0.22498761092E+02  0.51215913427E+02 -0.15100794814E+03  0.16110479335E+03  0.47000000000E+01 0. -1.
         -5    1    4    4    0  502  0.11565279672E+02 -0.56548388141E+02 -0.76183957288E+02  0.95695147438E+02  0.47000000000E+01 0.  1.
<mgrwt>
<rscale>  0 0.95211236E+02</rscale>
<asrwt>0</asrwt>
<pdfrwt beam="1">  1        3 0.62557732E-01 0.95510228E+02</pdfrwt>
<pdfrwt beam="2">  1       -3 0.37031878E-02 0.95510228E+02</pdfrwt>
<totfact> 0.19882194E+03</totfact>
</mgrwt>
</event>
<event>
 8    1  0.6836165E-004  0.9862186E+02  0.7546771E-02  0.1285391E+00
          1   -1    0    0  501    0  0.00000000000E+00  0.00000000000E+00  0.49209621455E+03  0.49209621455E+03  0.00000000000E+00 0. -1.
         -1   -1    0    0    0  501 -0.00000000000E+00 -0.00000000000E+00 -0.18981041539E+02  0.18981041539E+02  0.00000000000E+00 0.  1.
         23    2    1    2    0    0 -0.20289477432E+02 -0.22660232867E+02  0.24413097124E+03  0.26329869398E+03  0.93814295742E+02 0.  0.
         23    2    1    2    0    0  0.20289477432E+02  0.22660232867E+02  0.22898420177E+03  0.24777856211E+03  0.89639846785E+02 0.  0.
          5    1    3    3  502    0  0.27231106209E+02 -0.11173043441E+02  0.18036054103E+03  0.18280696049E+03  0.47000000000E+01 0. -1.
         -5    1    4    4    0  503  0.27473918234E+02  0.54720303043E+02  0.15280461630E+03  0.16468293327E+03  0.47000000000E+01 0.  1.
          5    1    4    4  503    0 -0.71844408017E+01 -0.32060070176E+02  0.76179585474E+02  0.83095628840E+02  0.47000000000E+01 0. -1.
         -5    1    3    3    0  502 -0.47520583641E+02 -0.11487189426E+02  0.63770430216E+02  0.80491733491E+02  0.47000000000E+01 0.  1.
<mgrwt>
<rscale>  0 0.97616026E+02</rscale>
<asrwt>0</asrwt>
<pdfrwt beam="1">  1        1 0.75707100E-01 0.98621859E+02</pdfrwt>
<pdfrwt beam="2">  1       -1 0.29201606E-02 0.98621859E+02</pdfrwt>
<totfact> 0.16607858E+04</totfact>
</mgrwt>
</event>
<event>
 8    1  0.6836165E-004  0.1233098E+03  0.7546771E-02  0.1239221E+00
         -1   -1    0    0    0  501 -0.00000000000E+00  0.00000000000E+00  0.56977689920E+02  0.56977689920E+02  0.00000000000E+00 0.  1.
          1   -1    0    0  501    0  0.00000000000E+00 -0.00000000000E+00 -0.75078149609E+03  0.75078149609E+03  0.00000000000E+00 0. -1.
         23    2    1    2    0    0 -0.68726135136E+02  0.29390119893E+02 -0.67196383571E+03  0.68253021360E+03  0.93407896773E+02 0.  0.
         23    2    1    2    0    0  0.68726135136E+02 -0.29390119893E+02 -0.21839970464E+02  0.12522897241E+03  0.98072679291E+02 0.  0.
          5    1    3    3  502    0 -0.72693660358E+02  0.54854965326E+02 -0.45981712875E+03  0.46877213801E+03  0.47000000000E+01 0. -1.
         -5    1    4    4    0  503  0.37286908355E+02  0.16677948264E+02  0.28437084212E+02  0.49992251914E+02  0.47000000000E+01 0.  1.
          5    1    4    4  503    0  0.31439226781E+02 -0.46068068157E+02 -0.50277054676E+02  0.75236720498E+02  0.47000000000E+01 0. -1.
         -5    1    3    3    0  502  0.39675252218E+01 -0.25464845434E+02 -0.21214670696E+03  0.21375807559E+03  0.47000000000E+01 0.  1.
<mgrwt>
<rscale>  0 0.12238020E+03</rscale>
<asrwt>0</asrwt>
<pdfrwt beam="1">  1        1 0.11550484E+00 0.12330982E+03</pdfrwt>
<pdfrwt beam="2">  1       -1 0.87657987E-02 0.12330982E+03</pdfrwt>
<totfact> 0.18736857E+03</totfact>
</mgrwt>
</event>
<event>
 8    1  0.6836165E-004  0.9546300E+02  0.7546771E-02  0.1291825E+00
          2   -1    0    0  501    0  0.00000000000E+00  0.00000000000E+00  0.65643256891E+02  0.65643256891E+02  0.00000000000E+00 0. -1.
         -2   -1    0    0    0  501 -0.00000000000E+00 -0.00000000000E+00 -0.25212441082E+03  0.25212441082E+03  0.00000000000E+00 0.  1.
         23    2    1    2    0    0 -0.21557606518E+02  0.83604661740E+01 -0.20251925876E+03  0.22389112137E+03  0.92620495916E+02 0.  0.
         23    2    1    2    0    0  0.21557606518E+02 -0.83604661740E+01  0.16038104836E+02  0.93876546342E+02  0.89559797638E+02 0.  0.
          5    1    3    3  502    0  0.23450453290E+02 -0.24525985920E+02 -0.43821139461E+02  0.55622207872E+02  0.47000000000E+01 0. -1.
         -5    1    4    4    0  503 -0.28680940249E+02  0.13006700576E+02 -0.97715148374E+01  0.33306802543E+02  0.47000000000E+01 0.  1.
          5    1    4    4  503    0  0.50238546767E+02 -0.21367166750E+02  0.25809619674E+02  0.60569743799E+02  0.47000000000E+01 0. -1.
         -5    1    3    3    0  502 -0.45008059808E+02  0.32886452094E+02 -0.15869811930E+03  0.16826891350E+03  0.47000000000E+01 0.  1.
<mgrwt>
<rscale>  0 0.94712547E+02</rscale>
<asrwt>0</asrwt>
<pdfrwt beam="1">  1        2 0.10098962E-01 0.95462998E+02</pdfrwt>
<pdfrwt beam="2">  1       -2 0.38788371E-01 0.95462998E+02</pdfrwt>
<totfact> 0.37314420E+03</totfact>
</mgrwt>
</event>
<event>
 8    1  0.6836165E-004  0.1241087E+03  0.7546771E-02  0.1236736E+00
         -2   -1    0    0    0  501 -0.00000000000E+00  0.00000000000E+00  0.68839426237E+02  0.68839426237E+02  0.00000000000E+00 0.  1.
          2   -1    0    0  501    0  0.00000000000E+00 -0.00000000000E+00 -0.35130360715E+03  0.35130360715E+03  0.00000000000E+00 0. -1.
         23    2    1    2    0    0  0.49940375232E+01  0.83630708966E+02 -0.13806922320E+02  0.12420438257E+03  0.90648009651E+02 0.  0.
         23    2    1    2    0    0 -0.49940375232E+01 -0.83630708966E+02 -0.26865725859E+03  0.29593865081E+03  0.91563784090E+02 0.  0.
          5    1    4    4  502    0 -0.36991717932E+02 -0.72452616343E+02 -0.13252998814E+03  0.15557652962E+03  0.47000000000E+01 0. -1.
         -5    1    3    3    0  503 -0.51578795029E+01  0.10181991018E+03 -0.10534839193E+02  0.10260102663E+03  0.47000000000E+01 0.  1.
          5    1    3    3  503    0  0.10151917026E+02 -0.18189201210E+02 -0.32720831271E+01  0.21603355942E+02  0.47000000000E+01 0. -1.
         -5    1    4    4    0  502  0.31997680409E+02 -0.11178092623E+02 -0.13612727045E+03  0.14036212119E+03  0.47000000000E+01 0.  1.
<mgrwt>
<rscale>  0 0.12393981E+03</rscale>
<asrwt>0</asrwt>
<pdfrwt beam="1">  1        2 0.54046709E-01 0.12410867E+03</pdfrwt>
<pdfrwt beam="2">  1       -2 0.10590681E-01 0.12410867E+03</pdfrwt>
<totfact> 0.53140743E+03</totfact>
</mgrwt>
</event>
<event>
 8    1  0.6836165E-004  0.9579265E+02  0.7546771E-02  0.1289403E+00
         -1   -1    0    0    0  501 -0.00000000000E+00  0.00000000000E+00  0.47276300382E+03  0.47276300382E+03  0.00000000000E+00 0.  1.
          1   -1    0    0  501    0  0.00000000000E+00 -0.00000000000E+00 -0.35651124186E+02  0.35651124186E+02  0.00000000000E+00 0. -1.
         23    2    1    2    0    0 -0.20149640647E+02 -0.23600072944E+02  0.39014014526E+03  0.40172822245E+03  0.90627039630E+02 0.  0.
         23    2    1    2    0    0  0.20149640647E+02  0.23600072944E+02  0.46971734379E+02  0.10668590556E+03  0.90623215308E+02 0.  0.
          5    1    4    4  502    0 -0.15494478744E+02  0.37538271955E+02 -0.58386760853E+01  0.41296257353E+02  0.47000000000E+01 0. -1.
         -5    1    4    4    0  502  0.35644119391E+02 -0.13938199011E+02  0.52810410465E+02  0.65389648204E+02  0.47000000000E+01 0.  1.
          5    1    3    3  503    0  0.31191814609E+02 -0.18258896872E+02  0.24316502043E+03  0.24588134084E+03  0.47000000000E+01 0. -1.
         -5    1    3    3    0  503 -0.51341455256E+02 -0.53411760728E+01  0.14697512483E+03  0.15584688161E+03  0.47000000000E+01 0.  1.
<mgrwt>
<rscale>  0 0.95791745E+02</rscale>
<asrwt>0</asrwt>
<pdfrwt beam="1">  1        1 0.54847887E-02 0.95792650E+02</pdfrwt>
<pdfrwt beam="2">  1       -1 0.72732765E-01 0.95792650E+02</pdfrwt>
<totfact> 0.27463253E+03</totfact>
</mgrwt>
</event>
<event>
 8    1  0.6836165E-004  0.1014066E+03  0.7546771E-02  0.1277376E+00
         -1   -1    0    0    0  501 -0.00000000000E+00  0.00000000000E+00  0.31971054216E+02  0.31971054216E+02  0.00000000000E+00 0.  1.
          1   -1    0    0  501    0  0.00000000000E+00 -0.00000000000E+00 -0.37215810846E+03  0.37215810846E+03  0.00000000000E+00 0. -1.
         23    2    1    2    0    0  0.39703915439E+02  0.15923532917E+02 -0.95588443391E+02  0.13934289023E+03  0.91920241223E+02 0.  0.
         23    2    1    2    0    0 -0.39703915439E+02 -0.15923532917E+02 -0.24459861085E+03  0.26478627245E+03  0.91941991722E+02 0.  0.
          5    1    4    4  502    0 -0.68261556895E+02 -0.53735645888E+01 -0.19111947435E+03  0.20306959108E+03  0.47000000000E+01 0. -1.
         -5    1    3    3    0  503  0.68296006447E+02  0.21498229029E+02 -0.70839220472E+02  0.10083056831E+03  0.47000000000E+01 0.  1.
          5    1    3    3  503    0 -0.28592091008E+02 -0.55746961123E+01 -0.24749222919E+02  0.38512321925E+02  0.47000000000E+01 0. -1.
         -5    1    4    4    0  502  0.28557641457E+02 -0.10549968328E+02 -0.53479136505E+02  0.61716681364E+02  0.47000000000E+01 0.  1.
<mgrwt>
<rscale>  0 0.10140163E+03</rscale>
<asrwt>0</asrwt>
<pdfrwt beam="1">  1        1 0.57255095E-01 0.10140656E+03</pdfrwt>
<pdfrwt beam="2">  1       -1 0.49186236E-02 0.10140656E+03</pdfrwt>
<totfact> 0.11087485E+04</totfact>
</mgrwt>
</event>
<event>
 8    1  0.6836165E-004  0.9470417E+02  0.7546771E-02  0.1293193E+00
          2   -1    0    0  501    0  0.00000000000E+00  0.00000000000E+00  0.41898380589E+03  0.41898380589E+03  0.00000000000E+00 0. -1.
         -2   -1    0    0    0  501 -0.00000000000E+00 -0.00000000000E+00 -0.39902146290E+02  0.39902146290E+02  0.00000000000E+00 0.  1.
         23    2    1    2    0    0 -0.26482405405E+02  0.20683304445E+01  0.34671518691E+03  0.35880364617E+03  0.88447950136E+02 0.  0.
         23    2    1    2    0    0  0.26482405405E+02 -0.20683304445E+01  0.32366472693E+02  0.10008230601E+03  0.90902605220E+02 0.  0.
          5    1    3    3  502    0 -0.41400537961E+02  0.16759809547E+02  0.32565372873E+03  0.32873596821E+03  0.47000000000E+01 0. -1.
         -5    1    4    4    0  503  0.79061642540E+01 -0.45633181881E+02  0.10569797068E+02  0.47735786700E+02  0.47000000000E+01 0.  1.
          5    1    4    4  503    0  0.18576241151E+02  0.43564851437E+02  0.21796675625E+02  0.52346519314E+02  0.47000000000E+01 0. -1.
         -5    1    3    3    0  502  0.14918132556E+02 -0.14691479102E+02  0.21061458180E+02  0.30067677959E+02  0.47000000000E+01 0.  1.
<mgrwt>
<rscale>  0 0.94110215E+02</rscale>
<asrwt>0</asrwt>
<pdfrwt beam="1">  1        2 0.64459044E-01 0.94704168E+02</pdfrwt>
<pdfrwt beam="2">  1       -2 0.61387920E-02 0.94704168E+02</pdfrwt>
<totfact> 0.10009206E+04</totfact>
</mgrwt>
</event>
<event>
 8    1  0.6836165E-004  0.9072082E+02  0.7546771E-02  0.1301161E+00
          1   -1    0    0  501    0  0.00000000000E+00  0.00000000000E+00  0.54982222334E+03  0.54982222334E+03  0.00000000000E+00 0. -1.
         -1   -1    0    0    0  501 -0.00000000000E+00 -0.00000000000E+00 -0.61074238441E+02  0.61074238441E+02  0.00000000000E+00 0.  1.
         23    2    1    2    0    0  0.93303707722E+01 -0.81863419858E+00 -0.21076143026E+02  0.93063565837E+02  0.90160398739E+02 0.  0.
         23    2    1    2    0    0 -0.93303707722E+01  0.81863419858E+00  0.50982412793E+03  0.51783289595E+03  0.90236027875E+02 0.  0.
          5    1    3    3  502    0  0.12415485511E+02 -0.31365986729E+02  0.21562493790E+02  0.40311295469E+02  0.47000000000E+01 0. -1.
         -5    1    4    4    0  503 -0.30120938532E+02  0.31033833601E+02  0.15198245527E+03  0.15808581997E+03  0.47000000000E+01 0.  1.
          5    1    4    4  503    0  0.20790567759E+02 -0.30215199402E+02  0.35784167266E+03  0.35974707597E+03  0.47000000000E+01 0. -1.
         -5    1    3    3    0  502 -0.30851147384E+01  0.30547352530E+02 -0.42638636815E+02  0.52752270368E+02  0.47000000000E+01 0.  1.
<mgrwt>
<rscale>  0 0.90702005E+02</rscale>
<asrwt>0</asrwt>
<pdfrwt beam="1">  1        1 0.84588031E-01 0.90720817E+02</pdfrwt>
<pdfrwt beam="2">  1       -1 0.93960370E-02 0.90720817E+02</pdfrwt>
<totfact> 0.25679805E+03</totfact>
</mgrwt>
</event>
<event>
 8    1  0.6836165E-004  0.1193276E+03  0.7546771E-02  0.1245895E+00
          1   -1    0    0  501    0  0.00000000000E+00  0.00000000000E+00  0.33241186726E+03  0.33241186726E+03  0.00000000000E+00 0. -1.
         -1   -1    0    0    0  501 -0.00000000000E+00 -0.00000000000E+00 -0.56018507805E+02  0.56018507805E+02  0.00000000000E+00 0.  1.
         23    2    1    2    0    0 -0.29445480343E+02  0.66210901018E+02  0.40789960521E+02  0.12610669003E+03  0.94805889403E+02 0.  0.
         23    2    1    2    0    0  0.29445480343E+02 -0.66210901018E+02  0.23560339894E+03  0.26232368503E+03  0.89743158032E+02 0.  0.
          5    1    4    4  502    0 -0.20544688860E+02 -0.23589519576E+02  0.15519128656E+03  0.15838236991E+03  0.47000000000E+01 0. -1.
         -5    1    3    3    0  503 -0.56597781885E+02  0.71455403637E+02  0.31428696179E+02  0.96535157154E+02  0.47000000000E+01 0.  1.
          5    1    3    3  503    0  0.27152301542E+02 -0.52445026186E+01  0.93612643411E+01  0.29571532879E+02  0.47000000000E+01 0. -1.
         -5    1    4    4    0  502  0.49990169203E+02 -0.42621381443E+02  0.80412112377E+02  0.10394131513E+03  0.47000000000E+01 0.  1.
<mgrwt>
<rscale>  0 0.11831956E+03</rscale>
<asrwt>0</asrwt>
<pdfrwt beam="1">  1        1 0.51140286E-01 0.11932760E+03</pdfrwt>
<pdfrwt beam="2">  1       -1 0.86182322E-02 0.11932760E+03</pdfrwt>
<totfact> 0.56059520E+03</totfact>
</mgrwt>
</event>
<event>
 8    1  0.6836165E-004  0.9328655E+02  0.7546771E-02  0.1295272E+00
         -3   -1    0    0    0  501 -0.00000000000E+00  0.00000000000E+00  0.20731578745E+03  0.20731578745E+03  0.00000000000E+00 0.  1.
          3   -1    0    0  501    0  0.00000000000E+00 -0.00000000000E+00 -0.45822241823E+02  0.45822241823E+02  0.00000000000E+00 0. -1.
         23    2    1    2    0    0 -0.11653016565E+02  0.19111576323E+02  0.11798140794E+03  0.15020268127E+03  0.90222988743E+02 0.  0.
         23    2    1    2    0    0  0.11653016565E+02 -0.19111576323E+02  0.43512137688E+02  0.10293534800E+03  0.90561220160E+02 0.  0.
          5    1    4    4  502    0 -0.18739813629E+02 -0.40048840940E+02 -0.15583506853E+01  0.44492794162E+02  0.47000000000E+01 0. -1.
         -5    1    4    4    0  502  0.30392830194E+02  0.20937264617E+02  0.45070488373E+02  0.58442553837E+02  0.47000000000E+01 0.  1.
          5    1    3    3  503    0  0.14722841010E+02 -0.24635532158E+02  0.83428873634E+02  0.88352353948E+02  0.47000000000E+01 0. -1.
         -5    1    3    3    0  503 -0.26375857575E+02  0.43747108481E+02  0.34552534302E+02  0.61850327323E+02  0.47000000000E+01 0.  1.
<mgrwt>
<rscale>  0 0.93204359E+02</rscale>
<asrwt>0</asrwt>
<pdfrwt beam="1">  1        3 0.70495758E-02 0.93286546E+02</pdfrwt>
<pdfrwt beam="2">  1       -3 0.31894736E-01 0.93286546E+02</pdfrwt>
<totfact> 0.26686731E+03</totfact>
</mgrwt>
</event>
<event>
 8    1  0.6836165E-004  0.1227782E+03  0.7546771E-02  0.1239830E+00
         -4   -1    0    0    0  501 -0.00000000000E+00  0.00000000000E+00  0.22621168873E+03  0.22621168873E+03  0.00000000000E+00 0.  1.
          4   -1    0    0  501    0  0.00000000000E+00 -0.00000000000E+00 -0.67402541684E+02  0.67402541684E+02  0.00000000000E+00 0. -1.
         23    2    1    2    0    0 -0.71205118276E+02  0.32951801037E+02  0.50604134705E+02  0.12995964730E+03  0.90403215741E+02 0.  0.
         23    2    1    2    0    0  0.71205118276E+02 -0.32951801037E+02  0.10820501234E+03  0.16365458311E+03  0.94437851619E+02 0.  0.
          5    1    3    3  502    0 -0.77035722045E+02 -0.83290415500E+01  0.30047340750E+02  0.83239462338E+02  0.47000000000E+01 0. -1.
         -5    1    3    3    0  502  0.58306037692E+01  0.41280842587E+02  0.20556793955E+02  0.46720184960E+02  0.47000000000E+01 0.  1.
          5    1    4    4  503    0  0.28854869463E+02 -0.57574463979E+02  0.29875242695E+02  0.71148032441E+02  0.47000000000E+01 0. -1.
         -5    1    4    4    0  503  0.42350248813E+02  0.24622662942E+02  0.78329769641E+02  0.92506550670E+02  0.47000000000E+01 0.  1.
<mgrwt>
<rscale>  0 0.12200202E+03</rscale>
<asrwt>0</asrwt>
<pdfrwt beam="1">  1        4 0.10369622E-01 0.12277825E+03</pdfrwt>
<pdfrwt beam="2">  1       -4 0.34801798E-01 0.12277825E+03</pdfrwt>
<totfact> 0.92197842E+02</totfact>
</mgrwt>
</event>
<event>
 8    1  0.6836165E-004  0.2662137E+03  0.7546771E-02  0.1104380E+00
         -4   -1    0    0    0  501 -0.00000000000E+00  0.00000000000E+00  0.26756315008E+04  0.26756315008E+04  0.00000000000E+00 0.  1.
          4   -1    0    0  501    0  0.00000000000E+00 -0.00000000000E+00 -0.26019433382E+02  0.26019433382E+02  0.00000000000E+00 0. -1.
         23    2    1    2    0    0 -0.22205991257E+03  0.99693855645E+02  0.12084434396E+04  0.12361009554E+04  0.91436072759E+02 0.  0.
         23    2    1    2    0    0  0.22205991257E+03 -0.99693855645E+02  0.14411686278E+04  0.14655499789E+04  0.10779729642E+03 0.  0.
          5    1    3    3  502    0 -0.13560619826E+03  0.27714078954E+02  0.82216703861E+03  0.83374926720E+03  0.47000000000E+01 0. -1.
         -5    1    4    4    0  503 -0.25809343286E+00 -0.27398864608E+02  0.86739683641E+02  0.91085822784E+02  0.47000000000E+01 0.  1.
          5    1    4    4  503    0  0.22231800601E+03 -0.72294991037E+02  0.13544289442E+04  0.13744641561E+04  0.47000000000E+01 0. -1.
         -5    1    3    3    0  502 -0.86453714315E+02  0.71979776691E+02  0.38627640103E+03  0.40235168816E+03  0.47000000000E+01 0.  1.
<mgrwt>
<rscale>  0 0.26465139E+03</rscale>
<asrwt>0</asrwt>
<pdfrwt beam="1">  1        4 0.40029919E-02 0.26621369E+03</pdfrwt>
<pdfrwt beam="2">  1       -4 0.41163540E+00 0.26621369E+03</pdfrwt>
<totfact> 0.45066438E+00</totfact>
</mgrwt>
</event>
<event>
 8    1  0.6836165E-004  0.9572410E+02  0.7546771E-02  0.1290782E+00
          4   -1    0    0  501    0  0.00000000000E+00  0.00000000000E+00  0.30318641564E+03  0.30318641564E+03  0.00000000000E+00 0. -1.
         -4   -1    0    0    0  501 -0.00000000000E+00 -0.00000000000E+00 -0.46301369206E+02  0.46301369206E+02  0.00000000000E+00 0.  1.
         23    2    1    2    0    0 -0.16426615644E+02 -0.83412687399E+01  0.23451970419E+03  0.25330336413E+03  0.93934509947E+02 0.  0.
         23    2    1    2    0    0  0.16426615644E+02  0.83412687399E+01  0.22365342238E+02  0.96184420713E+02  0.91715995272E+02 0.  0.
          5    1    4    4  502    0 -0.24736041967E+02  0.30609155405E+02  0.28406509522E+02  0.48762813188E+02  0.47000000000E+01 0. -1.
         -5    1    3    3    0  503  0.36396163994E+02  0.16694033720E+01  0.57444597929E+02  0.68186798519E+02  0.47000000000E+01 0.  1.
          5    1    3    3  503    0 -0.52822779639E+02 -0.10010672112E+02  0.17707510627E+03  0.18511656561E+03  0.47000000000E+01 0. -1.
         -5    1    4    4    0  502  0.41162657611E+02 -0.22267886665E+02 -0.60411672843E+01  0.47421607525E+02  0.47000000000E+01 0.  1.
<mgrwt>
<rscale>  0 0.95175380E+02</rscale>
<asrwt>0</asrwt>
<pdfrwt beam="1">  1        4 0.46644063E-01 0.95724096E+02</pdfrwt>
<pdfrwt beam="2">  1       -4 0.71232878E-02 0.95724096E+02</pdfrwt>
<totfact> 0.91424224E+02</totfact>
</mgrwt>
</event>
<event>
 8    1  0.6836165E-004  0.1692276E+03  0.7546771E-02  0.1179070E+00
         -2   -1    0    0    0  501 -0.00000000000E+00  0.00000000000E+00  0.32881387464E+02  0.32881387464E+02  0.00000000000E+00 0.  1.
          2   -1    0    0  501    0  0.00000000000E+00 -0.00000000000E+00 -0.86311470421E+03  0.86311470421E+03  0.00000000000E+00 0. -1.
         23    2    1    2    0    0 -0.10728132570E+03 -0.90861304469E+02 -0.42065280259E+03  0.45283226813E+03  0.91341246126E+02 0.  0.
         23    2    1    2    0    0  0.10728132570E+03  0.90861304469E+02 -0.40958051416E+03  0.44316382354E+03  0.94196164576E+02 0.  0.
          5    1    3    3  502    0 -0.16287032308E+02 -0.71752126662E+02 -0.20849728534E+03  0.22114891611E+03  0.47000000000E+01 0. -1.
         -5    1    4    4    0  503  0.28855355416E+02  0.52017745199E+01 -0.18063397477E+02  0.34757248492E+02  0.47000000000E+01 0.  1.
          5    1    4    4  503    0  0.78425970288E+02  0.85659529949E+02 -0.39151711668E+03  0.40840657505E+03  0.47000000000E+01 0. -1.
         -5    1    3    3    0  502 -0.90994293396E+02 -0.19109177807E+02 -0.21215551725E+03  0.23168335203E+03  0.47000000000E+01 0.  1.
<mgrwt>
<rscale>  0 0.16883313E+03</rscale>
<asrwt>0</asrwt>
<pdfrwt beam="1">  1        2 0.13278688E+00 0.16922759E+03</pdfrwt>
<pdfrwt beam="2">  1       -2 0.50586749E-02 0.16922759E+03</pdfrwt>
<totfact> 0.60527834E+03</totfact>
</mgrwt>
</event>
<event>
 8    1  0.6836165E-004  0.1231555E+03  0.7546771E-02  0.1238001E+00
         -3   -1    0    0    0  501 -0.00000000000E+00  0.00000000000E+00  0.33067016941E+02  0.33067016941E+02  0.00000000000E+00 0.  1.
          3   -1    0    0  501    0  0.00000000000E+00 -0.00000000000E+00 -0.45867874974E+03  0.45867874974E+03  0.00000000000E+00 0. -1.
         23    2    1    2    0    0 -0.82565320269E+02 -0.22835494608E+01 -0.21781943056E+03  0.25022505094E+03  0.91351108799E+02 0.  0.
         23    2    1    2    0    0  0.82565320269E+02  0.22835494608E+01 -0.20779230224E+03  0.24152071575E+03  0.91281808450E+02 0.  0.
          5    1    3    3  502    0 -0.13887607997E+02 -0.37943591295E+02 -0.11114340723E+03  0.11835340614E+03  0.47000000000E+01 0. -1.
         -5    1    3    3    0  502 -0.68677712271E+02  0.35660041834E+02 -0.10667602334E+03  0.13187164480E+03  0.47000000000E+01 0.  1.
          5    1    4    4  503    0  0.10963040204E+02 -0.38621288295E+02 -0.72573189425E+02  0.83070752876E+02  0.47000000000E+01 0.  1.
         -5    1    4    4    0  503  0.71602280064E+02  0.40904837756E+02 -0.13521911282E+03  0.15844996287E+03  0.47000000000E+01 0. -1.
<mgrwt>
<rscale>  0 0.12314263E+03</rscale>
<asrwt>0</asrwt>
<pdfrwt beam="1">  1        3 0.70565953E-01 0.12315548E+03</pdfrwt>
<pdfrwt beam="2">  1       -3 0.50872340E-02 0.12315548E+03</pdfrwt>
<totfact> 0.98600392E+02</totfact>
</mgrwt>
</event>
<event>
 8    1  0.6836165E-004  0.1006986E+03  0.7546771E-02  0.1282131E+00
          1   -1    0    0  501    0  0.00000000000E+00  0.00000000000E+00  0.14670352697E+02  0.14670352697E+02  0.00000000000E+00 0. -1.
         -1   -1    0    0    0  501 -0.00000000000E+00 -0.00000000000E+00 -0.67732737626E+03  0.67732737626E+03  0.00000000000E+00 0.  1.
         23    2    1    2    0    0  0.15319032632E+02  0.16845887997E+02 -0.39103909819E+03  0.40231426631E+03  0.91797254118E+02 0.  0.
         23    2    1    2    0    0 -0.15319032632E+02 -0.16845887997E+02 -0.27161792538E+03  0.28968346265E+03  0.98090542059E+02 0.  0.
          5    1    3    3  502    0  0.32725215266E+02 -0.18314889276E+02 -0.30847665502E+03  0.31078338369E+03  0.47000000000E+01 0. -1.
         -5    1    3    3    0  502 -0.17406182634E+02  0.35160777273E+02 -0.82562443166E+02  0.91530882624E+02  0.47000000000E+01 0.  1.
          5    1    4    4  503    0  0.28118789986E+01 -0.49476888643E+02 -0.78632861127E+02  0.93064955930E+02  0.47000000000E+01 0. -1.
         -5    1    4    4    0  503 -0.18130911631E+02  0.32631000645E+02 -0.19298506425E+03  0.19661850672E+03  0.47000000000E+01 0.  1.
<mgrwt>
<rscale>  0 0.99132563E+02</rscale>
<asrwt>0</asrwt>
<pdfrwt beam="1">  1        1 0.22569771E-02 0.10069862E+03</pdfrwt>
<pdfrwt beam="2">  1       -1 0.10420422E+00 0.10069862E+03</pdfrwt>
<totfact> 0.43788456E+03</totfact>
</mgrwt>
</event>
<event>
 8    1  0.7162505E-004  0.9277062E+02  0.7546771E-02  0.1301203E+00
          1   -1    0    0  501    0  0.00000000000E+00  0.00000000000E+00  0.71728834295E+03  0.71728834295E+03  0.00000000000E+00 0. -1.
         -1   -1    0    0    0  501 -0.00000000000E+00 -0.00000000000E+00 -0.20347773298E+02  0.20347773298E+02  0.00000000000E+00 0.  1.
         23    2    1    2    0    0 -0.79649995382E+01 -0.11227381136E+02  0.59006325534E+03  0.59611174187E+03  0.83576720317E+02 0.  0.
         23    2    1    2    0    0  0.79649995382E+01  0.11227381136E+02  0.10687731431E+03  0.14152437438E+03  0.91743626075E+02 0.  0.
          5    1    4    4  502    0  0.46648615229E+02  0.20954306691E+02  0.71301990193E+02  0.87870587100E+02  0.47000000000E+01 0. -1.
         -5    1    4    4    0  502 -0.38683615691E+02 -0.97269255545E+01  0.35575324112E+02  0.53653787279E+02  0.47000000000E+01 0.  1.
          5    1    3    3  503    0  0.30250607502E+02 -0.26366665373E+02  0.36944097783E+03  0.37164368204E+03  0.47000000000E+01 0. -1.
         -5    1    3    3    0  503 -0.38215607040E+02  0.15139284237E+02  0.22062227751E+03  0.22446805983E+03  0.47000000000E+01 0.  1.
<mgrwt>
<rscale>  0 0.90684338E+02</rscale>
<asrwt>0</asrwt>
<pdfrwt beam="1">  1        1 0.11035203E+00 0.92770622E+02</pdfrwt>
<pdfrwt beam="2">  1       -1 0.31304272E-02 0.92770622E+02</pdfrwt>
<totfact> 0.90090543E+03</totfact>
</mgrwt>
</event>
<event>
 8    1  0.6836165E-004  0.9059990E+02  0.7546771E-02  0.1301630E+00
          2   -1    0    0  501    0  0.00000000000E+00  0.00000000000E+00  0.35266973046E+03  0.35266973046E+03  0.00000000000E+00 0. -1.
         -2   -1    0    0    0  501 -0.00000000000E+00 -0.00000000000E+00 -0.54093474444E+02  0.54093474444E+02  0.00000000000E+00 0.  1.
         23    2    1    2    0    0 -0.92852563166E+01 -0.85200609404E+01 -0.43312061013E+01  0.90703367020E+02  0.89719195378E+02 0.  0.
         23    2    1    2    0    0  0.92852563166E+01  0.85200609404E+01  0.30290746211E+03  0.31605983788E+03  0.89342504406E+02 0.  0.
          5    1    4    4  502    0  0.58713615995E+01  0.47796366597E+02  0.19972621086E+03  0.20550332078E+03  0.47000000000E+01 0. -1.
         -5    1    4    4    0  502  0.34138947171E+01 -0.39276305657E+02  0.10318125126E+03  0.11055651710E+03  0.47000000000E+01 0.  1.
          5    1    3    3  503    0 -0.30033499720E+02  0.10599391862E+02  0.31374719372E+02  0.44953545232E+02  0.47000000000E+01 0. -1.
         -5    1    3    3    0  503  0.20748243403E+02 -0.19119452802E+02 -0.35705925473E+02  0.45749821788E+02  0.47000000000E+01 0.  1.
<mgrwt>
<rscale>  0 0.90506500E+02</rscale>
<asrwt>0</asrwt>
<pdfrwt beam="1">  1        2 0.54256880E-01 0.90599898E+02</pdfrwt>
<pdfrwt beam="2">  1       -2 0.83220732E-02 0.90599898E+02</pdfrwt>
<totfact> 0.75342780E+03</totfact>
</mgrwt>
</event>
<event>
 8    1  0.6836165E-004  0.2299472E+03  0.7546771E-02  0.1127857E+00
         -1   -1    0    0    0  501 -0.00000000000E+00  0.00000000000E+00  0.10638875123E+03  0.10638875123E+03  0.00000000000E+00 0.  1.
          1   -1    0    0  501    0  0.00000000000E+00 -0.00000000000E+00 -0.53106317867E+03  0.53106317867E+03  0.00000000000E+00 0. -1.
         23    2    1    2    0    0 -0.19985314423E+03 -0.45496908807E+02 -0.30556244473E+03  0.37848597316E+03  0.88724158393E+02 0.  0.
         23    2    1    2    0    0  0.19985314423E+03  0.45496908807E+02 -0.11911198271E+03  0.25896595673E+03  0.10423269328E+03 0.  0.
          5    1    4    4  502    0  0.16830694157E+03 -0.55491276330E+01 -0.75347603192E+02  0.18454639174E+03  0.47000000000E+01 0. -1.
         -5    1    3    3    0  503 -0.57024535001E+02 -0.14865224975E+02 -0.29377633511E+02  0.66014451875E+02  0.47000000000E+01 0.  1.
          5    1    3    3  503    0 -0.14282860923E+03 -0.30631683832E+02 -0.27618481122E+03  0.31247152129E+03  0.47000000000E+01 0. -1.
         -5    1    4    4    0  502  0.31546202667E+02  0.51046036440E+02 -0.43764379522E+02  0.74419564994E+02  0.47000000000E+01 0.  1.
<mgrwt>
<rscale>  0 0.22827869E+03</rscale>
<asrwt>0</asrwt>
<pdfrwt beam="1">  1        1 0.81702026E-01 0.22994717E+03</pdfrwt>
<pdfrwt beam="2">  1       -1 0.16367500E-01 0.22994717E+03</pdfrwt>
<totfact> 0.11628341E+03</totfact>
</mgrwt>
</event>
<event>
 8    1  0.6836165E-004  0.1077064E+03  0.7546771E-02  0.1265423E+00
         -1   -1    0    0    0  501 -0.00000000000E+00  0.00000000000E+00  0.59411543925E+02  0.59411543925E+02  0.00000000000E+00 0.  1.
          1   -1    0    0  501    0  0.00000000000E+00 -0.00000000000E+00 -0.30746656601E+03  0.30746656601E+03  0.00000000000E+00 0. -1.
         23    2    1    2    0    0  0.55524748959E+02  0.20534907738E+02 -0.11785371031E+02  0.10721675669E+03  0.88610709076E+02 0.  0.
         23    2    1    2    0    0 -0.55524748959E+02 -0.20534907738E+02 -0.23626965106E+03  0.25966135325E+03  0.89977720440E+02 0.  0.
          5    1    3    3  502    0  0.31317297736E+02 -0.33355452225E+02  0.31425798202E+01  0.46101248774E+02  0.47000000000E+01 0. -1.
         -5    1    3    3    0  502  0.24207451223E+02  0.53890359963E+02 -0.14927950852E+02  0.61115507920E+02  0.47000000000E+01 0.  1.
          5    1    4    4  503    0 -0.21409734474E+02 -0.45229459501E+02 -0.19162737761E+03  0.19810911788E+03  0.47000000000E+01 0. -1.
         -5    1    4    4    0  503 -0.34115014485E+02  0.24694551762E+02 -0.44642273447E+02  0.61552235366E+02  0.47000000000E+01 0.  1.
<mgrwt>
<rscale>  0 0.10742043E+03</rscale>
<asrwt>0</asrwt>
<pdfrwt beam="1">  1        1 0.47302549E-01 0.10770641E+03</pdfrwt>
<pdfrwt beam="2">  1       -1 0.91402375E-02 0.10770641E+03</pdfrwt>
<totfact> 0.56112188E+03</totfact>
</mgrwt>
</event>
<event>
 8    1  0.6836165E-004  0.9780030E+02  0.7546771E-02  0.1286194E+00
          1   -1    0    0  501    0  0.00000000000E+00  0.00000000000E+00  0.24523203192E+02  0.24523203192E+02  0.00000000000E+00 0. -1.
         -1   -1    0    0    0  501 -0.00000000000E+00 -0.00000000000E+00 -0.62941666395E+03  0.62941666395E+03  0.00000000000E+00 0.  1.
         23    2    1    2    0    0  0.15831818234E+02 -0.30018048022E+02 -0.99257151590E+02  0.13934446921E+03  0.91723330085E+02 0.  0.
         23    2    1    2    0    0 -0.15831818234E+02  0.30018048022E+02 -0.50563630917E+03  0.51459539793E+03  0.89379062135E+02 0.  0.
          5    1    4    4  502    0 -0.43113209835E+02 -0.85973850214E+01 -0.17193793912E+03  0.17753143046E+03  0.47000000000E+01 0. -1.
         -5    1    4    4    0  502  0.27281391602E+02  0.38615433043E+02 -0.33369837005E+03  0.33706396747E+03  0.47000000000E+01 0.  1.
          5    1    3    3  503    0  0.33025589157E+02 -0.56235176277E+02 -0.58712624085E+02  0.87876884429E+02  0.47000000000E+01 0. -1.
         -5    1    3    3    0  503 -0.17193770923E+02  0.26217128255E+02 -0.40544527505E+02  0.51467584780E+02  0.47000000000E+01 0.  1.
<mgrwt>
<rscale>  0 0.97246835E+02</rscale>
<asrwt>0</asrwt>
<pdfrwt beam="1">  1        1 0.37728005E-02 0.97800301E+02</pdfrwt>
<pdfrwt beam="2">  1       -1 0.96833333E-01 0.97800301E+02</pdfrwt>
<totfact> 0.25333887E+03</totfact>
</mgrwt>
</event>
<event>
 8    1  0.6836165E-004  0.1228958E+03  0.7546771E-02  0.1251640E+00
          1   -1    0    0  501    0  0.00000000000E+00  0.00000000000E+00  0.17973372717E+03  0.17973372717E+03  0.00000000000E+00 0. -1.
         -1   -1    0    0    0  501 -0.00000000000E+00 -0.00000000000E+00 -0.82288289613E+02  0.82288289613E+02  0.00000000000E+00 0.  1.
         23    2    1    2    0    0 -0.22567367651E+02  0.11536803118E+01 -0.48833831727E+01  0.12299276777E+03  0.12080048192E+03 0.  0.
         23    2    1    2    0    0  0.22567367651E+02 -0.11536803118E+01  0.10232882073E+03  0.13902924901E+03  0.91363709799E+02 0.  0.
          5    1    4    4  502    0  0.52784804331E+02 -0.21288566528E+02  0.68451205157E+02  0.89146486866E+02  0.47000000000E+01 0. -1.
         -5    1    3    3    0  503 -0.44338581373E+02 -0.35482352202E+02 -0.38279195071E+02  0.68646149865E+02  0.47000000000E+01 0.  1.
          5    1    3    3  503    0  0.21771213722E+02  0.36636032514E+02  0.33395811898E+02  0.54346617904E+02  0.47000000000E+01 0. -1.
         -5    1    4    4    0  502 -0.30217436681E+02  0.20134886217E+02  0.33877615571E+02  0.49882762146E+02  0.47000000000E+01 0.  1.
<mgrwt>
<rscale>  0 0.11496598E+03</rscale>
<asrwt>0</asrwt>
<pdfrwt beam="1">  1        1 0.27651343E-01 0.12289578E+03</pdfrwt>
<pdfrwt beam="2">  1       -1 0.12659737E-01 0.12289578E+03</pdfrwt>
<totfact> 0.66753886E+03</totfact>
</mgrwt>
</event>
<event>
 8    1  0.6836165E-004  0.1430037E+03  0.7546771E-02  0.1210182E+00
         -2   -1    0    0    0  501 -0.00000000000E+00  0.00000000000E+00  0.25232169961E+02  0.25232169961E+02  0.00000000000E+00 0.  1.
          2   -1    0    0  501    0  0.00000000000E+00 -0.00000000000E+00 -0.10668779248E+04  0.10668779248E+04  0.00000000000E+00 0. -1.
         23    2    1    2    0    0 -0.45724669370E+02  0.98654329997E+02 -0.24924248965E+03  0.28735320929E+03  0.92879631930E+02 0.  0.
         23    2    1    2    0    0  0.45724669370E+02 -0.98654329997E+02 -0.79240326522E+03  0.80475688550E+03  0.88922931864E+02 0.  0.
          5    1    3    3  502    0  0.14294917395E+02  0.24525951088E+02 -0.13697400350E+03  0.13996369020E+03  0.47000000000E+01 0. -1.
         -5    1    3    3    0  502 -0.60019586765E+02  0.74128378910E+02 -0.11226848615E+03  0.14738951909E+03  0.47000000000E+01 0.  1.
          5    1    4    4  503    0 -0.10561038335E+02 -0.79744187696E+02 -0.48239765691E+03  0.48908103663E+03  0.47000000000E+01 0. -1.
         -5    1    4    4    0  503  0.56285707705E+02 -0.18910142301E+02 -0.31000560831E+03  0.31567584887E+03  0.47000000000E+01 0.  1.
<mgrwt>
<rscale>  0 0.14236499E+03</rscale>
<asrwt>0</asrwt>
<pdfrwt beam="1">  1        2 0.16413508E+00 0.14300367E+03</pdfrwt>
<pdfrwt beam="2">  1       -2 0.38818719E-02 0.14300367E+03</pdfrwt>
<totfact> 0.67026022E+03</totfact>
</mgrwt>
</event>
<event>
 8    1  0.6836165E-004  0.1165491E+03  0.7546771E-02  0.1249203E+00
          1   -1    0    0  501    0  0.00000000000E+00  0.00000000000E+00  0.38287893112E+03  0.38287893112E+03  0.00000000000E+00 0. -1.
         -1   -1    0    0    0  501 -0.00000000000E+00 -0.00000000000E+00 -0.53564092919E+02  0.53564092919E+02  0.00000000000E+00 0.  1.
         23    2    1    2    0    0 -0.56516612183E+02 -0.44483911501E+02  0.29253412515E+03  0.31489667061E+03  0.91710157304E+02 0.  0.
         23    2    1    2    0    0  0.56516612183E+02  0.44483911501E+02  0.36780713053E+02  0.12154635342E+03  0.90817120319E+02 0.  0.
          5    1    4    4  502    0 -0.24528035837E+02  0.14351479070E+02  0.46096518528E+01  0.29170676779E+02  0.47000000000E+01 0. -1.
         -5    1    3    3    0  503 -0.11526812119E+00 -0.47093107093E+02  0.64936233453E+02  0.80352837147E+02  0.47000000000E+01 0.  1.
          5    1    3    3  503    0 -0.56401344062E+02  0.26091955923E+01  0.22759789170E+03  0.23454383347E+03  0.47000000000E+01 0. -1.
         -5    1    4    4    0  502  0.81044648021E+02  0.30132432431E+02  0.32171061200E+02  0.92375676646E+02  0.47000000000E+01 0.  1.
<mgrwt>
<rscale>  0 0.11637338E+03</rscale>
<asrwt>0</asrwt>
<pdfrwt beam="1">  1        1 0.58904449E-01 0.11654913E+03</pdfrwt>
<pdfrwt beam="2">  1       -1 0.82406299E-02 0.11654913E+03</pdfrwt>
<totfact> 0.50238967E+03</totfact>
</mgrwt>
</event>
<event>
 8    1  0.6836165E-004  0.1453147E+03  0.7546771E-02  0.1207045E+00
          1   -1    0    0  501    0  0.00000000000E+00  0.00000000000E+00  0.37364093374E+03  0.37364093374E+03  0.00000000000E+00 0. -1.
         -1   -1    0    0    0  501 -0.00000000000E+00 -0.00000000000E+00 -0.64839370675E+02  0.64839370675E+02  0.00000000000E+00 0.  1.
         23    2    1    2    0    0  0.39604701215E+02  0.10488708714E+03  0.71024300022E+02  0.15981493256E+03  0.89031051158E+02 0.  0.
         23    2    1    2    0    0 -0.39604701215E+02 -0.10488708714E+03  0.23777726304E+03  0.27866537185E+03  0.92447440431E+02 0.  0.
          5    1    4    4  502    0 -0.21159241256E+01 -0.10641312780E+03  0.16062704548E+03  0.19274690307E+03  0.47000000000E+01 0. -1.
         -5    1    4    4    0  502 -0.37488777089E+02  0.15260406639E+01  0.77150217562E+02  0.85918468781E+02  0.47000000000E+01 0.  1.
          5    1    3    3  503    0  0.42201971854E+02  0.17237701885E+02  0.53187737294E+02  0.70208049347E+02  0.47000000000E+01 0. -1.
         -5    1    3    3    0  503 -0.25972706397E+01  0.87649385252E+02  0.17836562728E+02  0.89606883216E+02  0.47000000000E+01 0.  1.
<mgrwt>
<rscale>  0 0.14477440E+03</rscale>
<asrwt>0</asrwt>
<pdfrwt beam="1">  1        1 0.57483219E-01 0.14531470E+03</pdfrwt>
<pdfrwt beam="2">  1       -1 0.99752880E-02 0.14531470E+03</pdfrwt>
<totfact> 0.39228138E+03</totfact>
</mgrwt>
</event>
<event>
 8    1  0.6836165E-004  0.1041838E+03  0.7546771E-02  0.1272127E+00
         -1   -1    0    0    0  501 -0.00000000000E+00  0.00000000000E+00  0.36309669679E+03  0.36309669679E+03  0.00000000000E+00 0.  1.
          1   -1    0    0  501    0  0.00000000000E+00 -0.00000000000E+00 -0.52668019449E+02  0.52668019449E+02  0.00000000000E+00 0. -1.
         23    2    1    2    0    0 -0.49282585522E+02 -0.11731002920E+02  0.29225440257E+03  0.31000761482E+03  0.90142641191E+02 0.  0.
         23    2    1    2    0    0  0.49282585522E+02  0.11731002920E+02  0.18174274776E+02  0.10575710142E+03  0.91037742571E+02 0.  0.
          5    1    4    4  502    0  0.10081331096E+02 -0.18514122813E+02 -0.29700729771E+02  0.36723688937E+02  0.47000000000E+01 0. -1.
         -5    1    4    4    0  502  0.39201254425E+02  0.30245125733E+02  0.47875004547E+02  0.69033412486E+02  0.47000000000E+01 0.  1.
          5    1    3    3  503    0 -0.63886136797E+02 -0.32194909894E+02  0.16036877720E+03  0.17566498057E+03  0.47000000000E+01 0. -1.
         -5    1    3    3    0  503  0.14603551275E+02  0.20463906975E+02  0.13188562537E+03  0.13434263425E+03  0.47000000000E+01 0.  1.
<mgrwt>
<rscale>  0 0.10398792E+03</rscale>
<asrwt>0</asrwt>
<pdfrwt beam="1">  1        1 0.81027724E-02 0.10418378E+03</pdfrwt>
<pdfrwt beam="2">  1       -1 0.55861029E-01 0.10418378E+03</pdfrwt>
<totfact> 0.27116324E+03</totfact>
</mgrwt>
</event>
<event>
 8    1  0.6836165E-004  0.1024751E+03  0.7546771E-02  0.1275204E+00
          2   -1    0    0  501    0  0.00000000000E+00  0.00000000000E+00  0.42142328476E+02  0.42142328476E+02  0.00000000000E+00 0. -1.
         -2   -1    0    0    0  501 -0.00000000000E+00 -0.00000000000E+00 -0.30302583886E+03  0.30302583886E+03  0.00000000000E+00 0.  1.
         23    2    1    2    0    0 -0.95879744006E+00 -0.46881101065E+02 -0.20325208968E+03  0.22759892636E+03  0.91055490721E+02 0.  0.
         23    2    1    2    0    0  0.95879744006E+00  0.46881101065E+02 -0.57631420703E+02  0.11756924098E+03  0.91117445322E+02 0.  0.
          5    1    3    3  502    0 -0.25587061460E+02 -0.69464559463E+01 -0.10074188986E+02  0.28749439092E+02  0.47000000000E+01 0. -1.
         -5    1    4    4    0  503  0.32953093382E+02  0.10456745866E+02 -0.59333401131E+02  0.68831623454E+02  0.47000000000E+01 0.  1.
          5    1    4    4  503    0 -0.31994295942E+02  0.36424355199E+02  0.17019804274E+01  0.48737617523E+02  0.47000000000E+01 0. -1.
         -5    1    3    3    0  502  0.24628264020E+02 -0.39934645119E+02 -0.19317790070E+03  0.19884948727E+03  0.47000000000E+01 0.  1.
<mgrwt>
<rscale>  0 0.10246132E+03</rscale>
<asrwt>0</asrwt>
<pdfrwt beam="1">  1        2 0.64834354E-02 0.10247510E+03</pdfrwt>
<pdfrwt beam="2">  1       -2 0.46619358E-01 0.10247510E+03</pdfrwt>
<totfact> 0.45840005E+03</totfact>
</mgrwt>
</event>
<event>
 8    1  0.6836165E-004  0.1029328E+03  0.7546771E-02  0.1279870E+00
         -1   -1    0    0    0  501 -0.00000000000E+00  0.00000000000E+00  0.68209266047E+02  0.68209266047E+02  0.00000000000E+00 0.  1.
          1   -1    0    0  501    0  0.00000000000E+00 -0.00000000000E+00 -0.26328184060E+03  0.26328184060E+03  0.00000000000E+00 0. -1.
         23    2    1    2    0    0  0.14109294482E+01 -0.45484212815E+00  0.18623292390E+02  0.94296915121E+02  0.92427720834E+02 0.  0.
         23    2    1    2    0    0 -0.14109294482E+01  0.45484212815E+00 -0.21369586694E+03  0.23719419152E+03  0.10292212270E+03 0.  0.
          5    1    4    4  502    0 -0.46760571296E+02  0.22086943843E+02 -0.96215933981E+02  0.10933425844E+03  0.47000000000E+01 0. -1.
         -5    1    4    4    0  502  0.45349641848E+02 -0.21632101715E+02 -0.11747993296E+03  0.12785993309E+03  0.47000000000E+01 0.  1.
          5    1    3    3  503    0  0.23550036150E+02 -0.36129107372E+00 -0.31317738945E+02  0.39466764581E+02  0.47000000000E+01 0. -1.
         -5    1    3    3    0  503 -0.22139106702E+02 -0.93551054429E-01  0.49941031335E+02  0.54830150539E+02  0.47000000000E+01 0.  1.
<mgrwt>
<rscale>  0 0.10020280E+03</rscale>
<asrwt>0</asrwt>
<pdfrwt beam="1">  1        1 0.40504898E-01 0.10293280E+03</pdfrwt>
<pdfrwt beam="2">  1       -1 0.10493734E-01 0.10293280E+03</pdfrwt>
<totfact> 0.54892836E+03</totfact>
</mgrwt>
</event>
<event>
 8    1  0.6836165E-004  0.1186637E+03  0.7546771E-02  0.1245351E+00
          1   -1    0    0  501    0  0.00000000000E+00  0.00000000000E+00  0.22990110696E+03  0.22990110696E+03  0.00000000000E+00 0. -1.
         -1   -1    0    0    0  501 -0.00000000000E+00 -0.00000000000E+00 -0.14269591838E+03  0.14269591838E+03  0.00000000000E+00 0.  1.
         23    2    1    2    0    0 -0.14854886458E+02  0.73597614269E+02  0.18439228089E+03  0.21927515087E+03  0.91890163007E+02 0.  0.
         23    2    1    2    0    0  0.14854886458E+02 -0.73597614269E+02 -0.97187092319E+02  0.15332187447E+03  0.91787743186E+02 0.  0.
          5    1    4    4  502    0  0.28679722489E+02 -0.50037123540E+02 -0.10883031245E+03  0.12325732076E+03  0.47000000000E+01 0. -1.
         -5    1    3    3    0  503  0.33172478078E+02  0.29108031935E+02  0.36467797962E+02  0.57442850844E+02  0.47000000000E+01 0.  1.
          5    1    3    3  503    0 -0.48027364535E+02  0.44489582335E+02  0.14792448293E+03  0.16183230002E+03  0.47000000000E+01 0. -1.
         -5    1    4    4    0  502 -0.13824836031E+02 -0.23560490729E+02  0.11643220127E+02  0.30064553707E+02  0.47000000000E+01 0.  1.
<mgrwt>
<rscale>  0 0.11864389E+03</rscale>
<asrwt>0</asrwt>
<pdfrwt beam="1">  1        1 0.35369401E-01 0.11866372E+03</pdfrwt>
<pdfrwt beam="2">  1       -1 0.21953218E-01 0.11866372E+03</pdfrwt>
<totfact> 0.20623517E+03</totfact>
</mgrwt>
</event>
<event>
 8    1  0.6836165E-004  0.9266692E+02  0.7546771E-02  0.1296732E+00
          2   -1    0    0  501    0  0.00000000000E+00  0.00000000000E+00  0.91738319785E+02  0.91738319785E+02  0.00000000000E+00 0. -1.
         -2   -1    0    0    0  501 -0.00000000000E+00 -0.00000000000E+00 -0.13717534175E+03  0.13717534175E+03  0.00000000000E+00 0.  1.
         23    2    1    2    0    0  0.52685598469E+01 -0.59811483480E+01 -0.87466440656E+02  0.12716087277E+03  0.91956388923E+02 0.  0.
         23    2    1    2    0    0 -0.52685598469E+01  0.59811483480E+01  0.42029418691E+02  0.10175278877E+03  0.92323486328E+02 0.  0.
          5    1    3    3  502    0  0.88367727916E+01 -0.41288366991E+02 -0.12822319076E+02  0.44377017348E+02  0.47000000000E+01 0. -1.
         -5    1    4    4    0  503 -0.35825523635E+02  0.27331775782E+02 -0.96851627355E-01  0.45305556959E+02  0.47000000000E+01 0.  1.
          5    1    4    4  503    0  0.30556963788E+02 -0.21350627434E+02  0.42126270319E+02  0.56447231808E+02  0.47000000000E+01 0. -1.
         -5    1    3    3    0  502 -0.35682129448E+01  0.35307218643E+02 -0.74644121580E+02  0.82783855421E+02  0.47000000000E+01 0.  1.
<mgrwt>
<rscale>  0 0.92575351E+02</rscale>
<asrwt>0</asrwt>
<pdfrwt beam="1">  1        2 0.14113588E-01 0.92666920E+02</pdfrwt>
<pdfrwt beam="2">  1       -2 0.21103899E-01 0.92666920E+02</pdfrwt>
<totfact> 0.73531132E+03</totfact>
</mgrwt>
</event>
<event>
 8    1  0.6836165E-004  0.1414890E+03  0.7546771E-02  0.1211833E+00
          2   -1    0    0  501    0  0.00000000000E+00  0.00000000000E+00  0.13563391393E+03  0.13563391393E+03  0.00000000000E+00 0. -1.
         -2   -1    0    0    0  501 -0.00000000000E+00 -0.00000000000E+00 -0.42900234711E+03  0.42900234711E+03  0.00000000000E+00 0.  1.
         23    2    1    2    0    0  0.89203435683E+02 -0.58903363869E+02 -0.37622191923E+03  0.40194782822E+03  0.92694470651E+02 0.  0.
         23    2    1    2    0    0 -0.89203435683E+02  0.58903363869E+02  0.82853486049E+02  0.16268843282E+03  0.90421052919E+02 0.  0.
          5    1    4    4  502    0 -0.71841617598E+02  0.25193978405E+02  0.95700000903E+02  0.12237865312E+03  0.47000000000E+01 0. -1.
         -5    1    3    3    0  503  0.61597269400E+02 -0.37399852118E+02 -0.35151085400E+03  0.35885225793E+03  0.47000000000E+01 0.  1.
          5    1    3    3  503    0  0.27606166283E+02 -0.21503511750E+02 -0.24711065228E+02  0.43095570296E+02  0.47000000000E+01 0. -1.
         -5    1    4    4    0  502 -0.17361818085E+02  0.33709385464E+02 -0.12846514855E+02  0.40309779700E+02  0.47000000000E+01 0.  1.
<mgrwt>
<rscale>  0 0.14111778E+03</rscale>
<asrwt>0</asrwt>
<pdfrwt beam="1">  1        2 0.20866756E-01 0.14148895E+03</pdfrwt>
<pdfrwt beam="2">  1       -2 0.66000360E-01 0.14148895E+03</pdfrwt>
<totfact> 0.56785058E+02</totfact>
</mgrwt>
</event>
<event>
 8    1  0.6836165E-004  0.9996532E+02  0.7546771E-02  0.1283410E+00
          1   -1    0    0  501    0  0.00000000000E+00  0.00000000000E+00  0.27750329691E+02  0.27750329691E+02  0.00000000000E+00 0. -1.
         -1   -1    0    0    0  501 -0.00000000000E+00 -0.00000000000E+00 -0.40094803172E+03  0.40094803172E+03  0.00000000000E+00 0.  1.
         23    2    1    2    0    0 -0.24558791585E+02 -0.23476734344E+02 -0.27456796835E+03  0.29219964706E+03  0.94014749918E+02 0.  0.
         23    2    1    2    0    0  0.24558791585E+02  0.23476734344E+02 -0.98629733685E+02  0.13649871435E+03  0.88032853830E+02 0.  0.
          5    1    3    3  502    0  0.23611989301E+02 -0.36152374244E+02 -0.77110196228E+02  0.88501935372E+02  0.47000000000E+01 0. -1.
         -5    1    3    3    0  502 -0.48170780886E+02  0.12675639901E+02 -0.19745777212E+03  0.20369771169E+03  0.47000000000E+01 0.  1.
          5    1    4    4  503    0  0.18932213528E+02  0.52413962581E+02 -0.34368732381E+02  0.65642607718E+02  0.47000000000E+01 0. -1.
         -5    1    4    4    0  503  0.56265780572E+01 -0.28937228238E+02 -0.64261001304E+02  0.70856106634E+02  0.47000000000E+01 0.  1.
<mgrwt>
<rscale>  0 0.98533885E+02</rscale>
<asrwt>0</asrwt>
<pdfrwt beam="1">  1        1 0.42692816E-02 0.99965316E+02</pdfrwt>
<pdfrwt beam="2">  1       -1 0.61684311E-01 0.99965316E+02</pdfrwt>
<totfact> 0.53206875E+03</totfact>
</mgrwt>
</event>
<event>
 8    1  0.6836165E-004  0.9625703E+02  0.7546771E-02  0.1296189E+00
         -1   -1    0    0    0  501 -0.00000000000E+00  0.00000000000E+00  0.15721218135E+03  0.15721218135E+03  0.00000000000E+00 0.  1.
          1   -1    0    0  501    0  0.00000000000E+00 -0.00000000000E+00 -0.70838485020E+02  0.70838485020E+02  0.00000000000E+00 0. -1.
         23    2    1    2    0    0  0.14662718124E+02  0.16321913579E+02  0.10537508439E+03  0.14272114273E+03  0.93723081503E+02 0.  0.
         23    2    1    2    0    0 -0.14662718124E+02 -0.16321913579E+02 -0.19001388058E+02  0.85329523642E+02  0.80241352750E+02 0.  0.
          5    1    3    3  502    0 -0.19609090222E+02 -0.30650274940E+02  0.29896851995E+02  0.47327238800E+02  0.47000000000E+01 0. -1.
         -5    1    3    3    0  502  0.34271808346E+02  0.46972188519E+02  0.75478232393E+02  0.95393903928E+02  0.47000000000E+01 0.  1.
          5    1    4    4  503    0 -0.41565800281E+01 -0.43727628632E+02 -0.30258527895E+02  0.53544851981E+02  0.47000000000E+01 0. -1.
         -5    1    4    4    0  503 -0.10506138096E+02  0.27405715053E+02  0.11257139837E+02  0.31784671661E+02  0.47000000000E+01 0.  1.
<mgrwt>
<rscale>  0 0.92808595E+02</rscale>
<asrwt>0</asrwt>
<pdfrwt beam="1">  1        1 0.10898228E-01 0.96257032E+02</pdfrwt>
<pdfrwt beam="2">  1       -1 0.24186489E-01 0.96257032E+02</pdfrwt>
<totfact> 0.77173687E+03</totfact>
</mgrwt>
</event>
<event>
 8    1  0.6836165E-004  0.9938911E+02  0.7546771E-02  0.1285431E+00
          1   -1    0    0  501    0  0.00000000000E+00  0.00000000000E+00  0.32949331151E+03  0.32949331151E+03  0.00000000000E+00 0. -1.
         -1   -1    0    0    0  501 -0.00000000000E+00 -0.00000000000E+00 -0.33362791696E+02  0.33362791696E+02  0.00000000000E+00 0.  1.
         23    2    1    2    0    0  0.17403803442E+02 -0.91084693782E+01  0.21684818259E+03  0.23571883831E+03  0.90301604910E+02 0.  0.
         23    2    1    2    0    0 -0.17403803442E+02  0.91084693782E+01  0.79282337217E+02  0.12713726490E+03  0.97428633071E+02 0.  0.
          5    1    3    3  502    0 -0.22906852870E+02  0.18438362250E+02  0.28978424059E+02  0.41551608535E+02  0.47000000000E+01 0. -1.
         -5    1    4    4    0  503  0.26834639698E+02  0.12243429247E+02 -0.63975411032E+01  0.30545343010E+02  0.47000000000E+01 0.  1.
          5    1    4    4  503    0 -0.44238443139E+02 -0.31349598684E+01  0.85679878320E+02  0.96591921886E+02  0.47000000000E+01 0. -1.
         -5    1    3    3    0  502  0.40310656312E+02 -0.27546831629E+02  0.18786975853E+03  0.19416722977E+03  0.47000000000E+01 0.  1.
<mgrwt>
<rscale>  0 0.97597308E+02</rscale>
<asrwt>0</asrwt>
<pdfrwt beam="1">  1        1 0.50691276E-01 0.99389110E+02</pdfrwt>
<pdfrwt beam="2">  1       -1 0.51327374E-02 0.99389110E+02</pdfrwt>
<totfact> 0.12084063E+04</totfact>
</mgrwt>
</event>
<event>
 8    1  0.6836165E-004  0.1058178E+03  0.7546771E-02  0.1269399E+00
         -3   -1    0    0    0  501 -0.00000000000E+00  0.00000000000E+00  0.38658188048E+02  0.38658188048E+02  0.00000000000E+00 0.  1.
          3   -1    0    0  501    0  0.00000000000E+00 -0.00000000000E+00 -0.39460104804E+03  0.39460104804E+03  0.00000000000E+00 0. -1.
         23    2    1    2    0    0 -0.19739635268E+02  0.49115766262E+02 -0.62586849693E+02  0.12140165038E+03  0.89550182933E+02 0.  0.
         23    2    1    2    0    0  0.19739635268E+02 -0.49115766262E+02 -0.29335601030E+03  0.31185758572E+03  0.91626378804E+02 0.  0.
          5    1    4    4  502    0 -0.22444655723E+02 -0.21970536179E+02 -0.22340410199E+03  0.22565006053E+03  0.47000000000E+01 0. -1.
         -5    1    4    4    0  502  0.42184290991E+02 -0.27145230082E+02 -0.69951908313E+02  0.86207525189E+02  0.47000000000E+01 0.  1.
          5    1    3    3  503    0 -0.38732009874E+02  0.40831310763E+01 -0.60691141450E+02  0.72265795497E+02  0.47000000000E+01 0. -1.
         -5    1    3    3    0  503  0.18992374606E+02  0.45032635185E+02 -0.18957082434E+01  0.49135854878E+02  0.47000000000E+01 0.  1.
<mgrwt>
<rscale>  0 0.10536677E+03</rscale>
<asrwt>0</asrwt>
<pdfrwt beam="1">  1        3 0.60707848E-01 0.10581779E+03</pdfrwt>
<pdfrwt beam="2">  1       -3 0.59474141E-02 0.10581779E+03</pdfrwt>
<totfact> 0.10263327E+03</totfact>
</mgrwt>
</event>
<event>
 8    1  0.6836165E-004  0.1100670E+03  0.7546771E-02  0.1261372E+00
          3   -1    0    0  501    0  0.00000000000E+00  0.00000000000E+00  0.16599198702E+02  0.16599198702E+02  0.00000000000E+00 0. -1.
         -3   -1    0    0    0  501 -0.00000000000E+00 -0.00000000000E+00 -0.79967958256E+03  0.79967958256E+03  0.00000000000E+00 0.  1.
         23    2    1    2    0    0  0.50873115413E+02  0.26267625957E+02 -0.52615939079E+03  0.53754856491E+03  0.94003686492E+02 0.  0.
         23    2    1    2    0    0 -0.50873115413E+02 -0.26267625957E+02 -0.25692099307E+03  0.27873021636E+03  0.91673740974E+02 0.  0.
          5    1    3    3  502    0 -0.15101993916E+01  0.24759944605E+02 -0.32800706249E+02  0.41392171838E+02  0.47000000000E+01 0. -1.
         -5    1    3    3    0  502  0.52383314804E+02  0.15076813516E+01 -0.49335868454E+03  0.49615639307E+03  0.47000000000E+01 0.  1.
          5    1    4    4  503    0 -0.35190673244E+02  0.19517723913E+01 -0.22561041238E+02  0.42110372601E+02  0.47000000000E+01 0. -1.
         -5    1    4    4    0  503 -0.15682442168E+02 -0.28219398348E+02 -0.23435995183E+03  0.23661984375E+03  0.47000000000E+01 0.  1.
<mgrwt>
<rscale>  0 0.10956788E+03</rscale>
<asrwt>0</asrwt>
<pdfrwt beam="1">  1        3 0.25537229E-02 0.11006705E+03</pdfrwt>
<pdfrwt beam="2">  1       -3 0.12302763E+00 0.11006705E+03</pdfrwt>
<totfact> 0.81552528E+02</totfact>
</mgrwt>
</event>
<event>
 8    1  0.6836165E-004  0.1407339E+03  0.7546771E-02  0.1212873E+00
         -1   -1    0    0    0  501 -0.00000000000E+00  0.00000000000E+00  0.13984503141E+03  0.13984503141E+03  0.00000000000E+00 0.  1.
          1   -1    0    0  501    0  0.00000000000E+00 -0.00000000000E+00 -0.17382882585E+03  0.17382882585E+03  0.00000000000E+00 0. -1.
         23    2    1    2    0    0  0.28880376028E+02  0.10117298477E+03 -0.86050755130E+02  0.16361721937E+03  0.91081354009E+02 0.  0.
         23    2    1    2    0    0 -0.28880376028E+02 -0.10117298477E+03  0.52066960698E+02  0.15005663789E+03  0.93466449654E+02 0.  0.
          5    1    4    4  502    0  0.41778731163E+01 -0.65242785065E+02 -0.14734726030E+02  0.67180933143E+02  0.47000000000E+01 0. -1.
         -5    1    3    3    0  503 -0.30632624151E+02  0.51851844906E+02 -0.48954104197E+02  0.77753236591E+02  0.47000000000E+01 0.  1.
          5    1    3    3  503    0  0.59513000179E+02  0.49321139868E+02 -0.37096650933E+02  0.85863982779E+02  0.47000000000E+01 0. -1.
         -5    1    4    4    0  502 -0.33058249144E+02 -0.35930199709E+02  0.66801686728E+02  0.82875704747E+02  0.47000000000E+01 0.  1.
<mgrwt>
<rscale>  0 0.14033908E+03</rscale>
<asrwt>0</asrwt>
<pdfrwt beam="1">  1        1 0.26742896E-01 0.14073388E+03</pdfrwt>
<pdfrwt beam="2">  1       -1 0.21514620E-01 0.14073388E+03</pdfrwt>
<totfact> 0.30371680E+03</totfact>
</mgrwt>
</event>
<event>
 8    1  0.6836165E-004  0.1218004E+03  0.7546771E-02  0.1240638E+00
         -2   -1    0    0    0  501 -0.00000000000E+00  0.00000000000E+00  0.31936744253E+02  0.31936744253E+02  0.00000000000E+00 0.  1.
          2   -1    0    0  501    0  0.00000000000E+00 -0.00000000000E+00 -0.60685680231E+03  0.60685680231E+03  0.00000000000E+00 0. -1.
         23    2    1    2    0    0 -0.23274525955E+02  0.75942694980E+02 -0.13141175141E+03  0.17917693496E+03  0.92338123936E+02 0.  0.
         23    2    1    2    0    0  0.23274525955E+02 -0.75942694980E+02 -0.44350830665E+03  0.45961661161E+03  0.90767919011E+02 0.  0.
          5    1    3    3  502    0  0.24410543265E+02 -0.40166722525E+01 -0.12589183178E+02  0.28152900589E+02  0.47000000000E+01 0. -1.
         -5    1    3    3    0  502 -0.47685069221E+02  0.79959367233E+02 -0.11882256824E+03  0.15102403437E+03  0.47000000000E+01 0.  1.
          5    1    4    4  503    0  0.48095801867E+02 -0.44417134924E+02 -0.36964596623E+03  0.37542818006E+03  0.47000000000E+01 0. -1.
         -5    1    4    4    0  503 -0.24821275912E+02 -0.31525560057E+02 -0.73862340414E+02  0.84188431547E+02  0.47000000000E+01 0.  1.
<mgrwt>
<rscale>  0 0.12150275E+03</rscale>
<asrwt>0</asrwt>
<pdfrwt beam="1">  1        2 0.93362574E-01 0.12180035E+03</pdfrwt>
<pdfrwt beam="2">  1       -2 0.49133458E-02 0.12180035E+03</pdfrwt>
<totfact> 0.95028468E+03</totfact>
</mgrwt>
</event>
<event>
 8    1  0.6836165E-004  0.1113822E+03  0.7546771E-02  0.1258902E+00
         -4   -1    0    0    0  501 -0.00000000000E+00  0.00000000000E+00  0.74454191121E+03  0.74454191121E+03  0.00000000000E+00 0.  1.
          4   -1    0    0  501    0  0.00000000000E+00 -0.00000000000E+00 -0.19761893212E+02  0.19761893212E+02  0.00000000000E+00 0. -1.
         23    2    1    2    0    0 -0.50562207549E+02  0.38419771023E+02  0.52303919024E+03  0.53476722299E+03  0.91506134293E+02 0.  0.
         23    2    1    2    0    0  0.50562207549E+02 -0.38419771023E+02  0.20174082775E+03  0.22953658143E+03  0.89191171063E+02 0.  0.
          5    1    4    4  502    0  0.16887166879E+02 -0.64235622375E+02  0.12981415066E+03  0.14589446631E+03  0.47000000000E+01 0. -1.
         -5    1    3    3    0  503 -0.92733142982E+01  0.61352407336E+02  0.34167391930E+03  0.34729421154E+03  0.47000000000E+01 0.  1.
          5    1    3    3  503    0 -0.41288893251E+02 -0.22932636313E+02  0.18136527095E+03  0.18747301144E+03  0.47000000000E+01 0. -1.
         -5    1    4    4    0  502  0.33675040671E+02  0.25815851353E+02  0.71926677093E+02  0.83642115127E+02  0.47000000000E+01 0.  1.
<mgrwt>
<rscale>  0 0.11090565E+03</rscale>
<asrwt>0</asrwt>
<pdfrwt beam="1">  1        4 0.30402918E-02 0.11138217E+03</pdfrwt>
<pdfrwt beam="2">  1       -4 0.11454489E+00 0.11138217E+03</pdfrwt>
<totfact> 0.52385093E+02</totfact>
</mgrwt>
</event>
<event>
 8    1  0.6836165E-004  0.1019328E+03  0.7546771E-02  0.1276764E+00
         -2   -1    0    0    0  501 -0.00000000000E+00  0.00000000000E+00  0.29888052597E+02  0.29888052597E+02  0.00000000000E+00 0.  1.
          2   -1    0    0  501    0  0.00000000000E+00 -0.00000000000E+00 -0.52964680740E+03  0.52964680740E+03  0.00000000000E+00 0. -1.
         23    2    1    2    0    0 -0.30838853982E+02  0.29782632184E+02 -0.41605207393E+03  0.42835688437E+03  0.92478387050E+02 0.  0.
         23    2    1    2    0    0  0.30838853982E+02 -0.29782632184E+02 -0.83706680876E+02  0.13117797563E+03  0.91448415909E+02 0.  0.
          5    1    3    3  502    0 -0.51694200193E+02  0.49088535126E+02 -0.32882511585E+03  0.33649668858E+03  0.47000000000E+01 0. -1.
         -5    1    3    3    0  502  0.20855346211E+02 -0.19305902941E+02 -0.87226958079E+02  0.91860195785E+02  0.47000000000E+01 0.  1.
          5    1    4    4  503    0 -0.30266424774E+02 -0.23976502242E+02 -0.25902462465E+02  0.46732822407E+02  0.47000000000E+01 0. -1.
         -5    1    4    4    0  503  0.61105278756E+02 -0.58061299428E+01 -0.57804218411E+02  0.84445153222E+02  0.47000000000E+01 0.  1.
<mgrwt>
<rscale>  0 0.10169860E+03</rscale>
<asrwt>0</asrwt>
<pdfrwt beam="1">  1        2 0.81484126E-01 0.10193278E+03</pdfrwt>
<pdfrwt beam="2">  1       -2 0.45981619E-02 0.10193278E+03</pdfrwt>
<totfact> 0.12048428E+04</totfact>
</mgrwt>
</event>
<event>
 8    1  0.6836165E-004  0.1256457E+03  0.7546771E-02  0.1234713E+00
         -2   -1    0    0    0  501 -0.00000000000E+00  0.00000000000E+00  0.12918046581E+03  0.12918046581E+03  0.00000000000E+00 0.  1.
          2   -1    0    0  501    0  0.00000000000E+00 -0.00000000000E+00 -0.23756992982E+03  0.23756992982E+03  0.00000000000E+00 0. -1.
         23    2    1    2    0    0 -0.56015161364E+02 -0.60709810592E+02  0.74294179113E+02  0.14596730788E+03  0.94675501134E+02 0.  0.
         23    2    1    2    0    0  0.56015161364E+02  0.60709810592E+02 -0.18268364312E+03  0.22078308775E+03  0.92457984880E+02 0.  0.
          5    1    3    3  502    0 -0.17069048938E+02  0.24475421219E+02  0.84164401249E+01  0.31358015560E+02  0.47000000000E+01 0. -1.
         -5    1    3    3    0  502 -0.38946112427E+02 -0.85185231811E+02  0.65877738988E+02  0.11460929232E+03  0.47000000000E+01 0.  1.
          5    1    4    4  503    0  0.18168281087E+02  0.20730510411E+02 -0.15767345674E+03  0.16013384858E+03  0.47000000000E+01 0. -1.
         -5    1    4    4    0  503  0.37846880277E+02  0.39979300181E+02 -0.25010186382E+02  0.60649239175E+02  0.47000000000E+01 0.  1.
<mgrwt>
<rscale>  0 0.12522799E+03</rscale>
<asrwt>0</asrwt>
<pdfrwt beam="1">  1        2 0.36549220E-01 0.12564565E+03</pdfrwt>
<pdfrwt beam="2">  1       -2 0.19873918E-01 0.12564565E+03</pdfrwt>
<totfact> 0.28898039E+03</totfact>
</mgrwt>
</event>
<event>
 8    1  0.6836165E-004  0.1295358E+03  0.7546771E-02  0.1228827E+00
         -1   -1    0    0    0  501 -0.00000000000E+00  0.00000000000E+00  0.24620313546E+02  0.24620313546E+02  0.00000000000E+00 0.  1.
          1   -1    0    0  501    0  0.00000000000E+00 -0.00000000000E+00 -0.67244069188E+03  0.67244069188E+03  0.00000000000E+00 0. -1.
         23    2    1    2    0    0 -0.15249358475E+02  0.91737328340E+02 -0.31291965018E+03  0.33798159746E+03  0.87547543694E+02 0.  0.
         23    2    1    2    0    0  0.15249358475E+02 -0.91737328340E+02 -0.33490072816E+03  0.35907940797E+03  0.90173406076E+02 0.  0.
          5    1    3    3  502    0 -0.25776815917E+02  0.44065784109E+02 -0.26318401150E+03  0.26813084768E+03  0.47000000000E+01 0. -1.
         -5    1    4    4    0  503 -0.33667788315E+02 -0.13282168189E+02 -0.81537863909E+02  0.89333360021E+02  0.47000000000E+01 0.  1.
          5    1    4    4  503    0  0.48917146790E+02 -0.78455160151E+02 -0.25336286425E+03  0.26974604795E+03  0.47000000000E+01 0. -1.
         -5    1    3    3    0  502  0.10527457442E+02  0.47671544231E+02 -0.49735638673E+02  0.69850749772E+02  0.47000000000E+01 0.  1.
<mgrwt>
<rscale>  0 0.12907989E+03</rscale>
<asrwt>0</asrwt>
<pdfrwt beam="1">  1        1 0.10345243E+00 0.12953580E+03</pdfrwt>
<pdfrwt beam="2">  1       -1 0.37877401E-02 0.12953580E+03</pdfrwt>
<totfact> 0.76475455E+03</totfact>
</mgrwt>
</event>
<event>
 8    1  0.6836165E-004  0.9360409E+02  0.7546771E-02  0.1295663E+00
          2   -1    0    0  501    0  0.00000000000E+00  0.00000000000E+00  0.65518224593E+03  0.65518224593E+03  0.00000000000E+00 0. -1.
         -2   -1    0    0    0  501 -0.00000000000E+00 -0.00000000000E+00 -0.13839431519E+02  0.13839431519E+02  0.00000000000E+00 0.  1.
         23    2    1    2    0    0 -0.11423379485E+02 -0.68027042700E+01  0.39672667755E+03  0.40710799018E+03  0.90377478441E+02 0.  0.
         23    2    1    2    0    0  0.11423379485E+02  0.68027042700E+01  0.24461613686E+03  0.26191368726E+03  0.92655031048E+02 0.  0.
          5    1    4    4  502    0  0.34098304285E+02  0.75461126556E+01  0.23362927746E+03  0.23627180843E+03  0.47000000000E+01 0. -1.
         -5    1    4    4    0  502 -0.22674924800E+02 -0.74340838559E+00  0.10986859403E+02  0.25641878836E+02  0.47000000000E+01 0.  1.
          5    1    3    3  503    0  0.39138798340E+02 -0.60805931214E+01  0.15028211601E+03  0.15548512321E+03  0.47000000000E+01 0. -1.
         -5    1    3    3    0  503 -0.50562177826E+02 -0.72211114858E+00  0.24644456154E+03  0.25162286697E+03  0.47000000000E+01 0.  1.
<mgrwt>
<rscale>  0 0.93035455E+02</rscale>
<asrwt>0</asrwt>
<pdfrwt beam="1">  1        2 0.10079724E+00 0.93604087E+02</pdfrwt>
<pdfrwt beam="2">  1       -2 0.21291438E-02 0.93604087E+02</pdfrwt>
<totfact> 0.29000131E+04</totfact>
</mgrwt>
</event>
<event>
 8    1  0.6836165E-004  0.1352389E+03  0.7546771E-02  0.1226912E+00
          2   -1    0    0  501    0  0.00000000000E+00  0.00000000000E+00  0.13960326163E+03  0.13960326163E+03  0.00000000000E+00 0. -1.
         -2   -1    0    0    0  501 -0.00000000000E+00 -0.00000000000E+00 -0.12043102984E+03  0.12043102984E+03  0.00000000000E+00 0.  1.
         23    2    1    2    0    0  0.12606661519E+02 -0.73966106757E+02 -0.21645508004E+02  0.11876981004E+03  0.89486462084E+02 0.  0.
         23    2    1    2    0    0 -0.12606661519E+02  0.73966106757E+02  0.40817739798E+02  0.14126448143E+03  0.11251512329E+03 0.  0.
          5    1    4    4  502    0  0.34868202736E+01  0.94507081888E+02  0.56690990366E+02  0.11036170002E+03  0.47000000000E+01 0. -1.
         -5    1    4    4    0  502 -0.16093481792E+02 -0.20540975131E+02 -0.15873250568E+02  0.30902781414E+02  0.47000000000E+01 0.  1.
          5    1    3    3  503    0  0.49937535076E+02 -0.50797895858E+02 -0.21595988878E+02  0.74583244557E+02  0.47000000000E+01 0. -1.
         -5    1    3    3    0  503 -0.37330873557E+02 -0.23168210899E+02 -0.49519125715E-01  0.44186565480E+02  0.47000000000E+01 0.  1.
<mgrwt>
<rscale>  0 0.13036742E+03</rscale>
<asrwt>0</asrwt>
<pdfrwt beam="1">  1        2 0.21477425E-01 0.13523892E+03</pdfrwt>
<pdfrwt beam="2">  1       -2 0.18527851E-01 0.13523892E+03</pdfrwt>
<totfact> 0.58306620E+03</totfact>
</mgrwt>
</event>
<event>
 8    1  0.6836165E-004  0.1881688E+03  0.7546771E-02  0.1164394E+00
          2   -1    0    0  501    0  0.00000000000E+00  0.00000000000E+00  0.42460114057E+02  0.42460114057E+02  0.00000000000E+00 0. -1.
         -2   -1    0    0    0  501 -0.00000000000E+00 -0.00000000000E+00 -0.76066671872E+03  0.76066671872E+03  0.00000000000E+00 0.  1.
         23    2    1    2    0    0  0.60670367217E+02  0.12998776171E+03 -0.34947594255E+03  0.39691425457E+03  0.12177758171E+03 0.  0.
         23    2    1    2    0    0 -0.60670367217E+02 -0.12998776171E+03 -0.36873066211E+03  0.40621257821E+03  0.92025245776E+02 0.  0.
          5    1    4    4  502    0  0.12212852495E+02 -0.44647898394E+02 -0.18590163309E+03  0.19163531977E+03  0.47000000000E+01 0. -1.
         -5    1    4    4    0  502 -0.72883219712E+02 -0.85339863316E+02 -0.18282902902E+03  0.21457725844E+03  0.47000000000E+01 0.  1.
          5    1    3    3  503    0  0.79006519930E+02  0.14192661453E+03 -0.27794134897E+03  0.32196067706E+03  0.47000000000E+01 0. -1.
         -5    1    3    3    0  503 -0.18336152714E+02 -0.11938852822E+02 -0.71534593583E+02  0.74953577514E+02  0.47000000000E+01 0.  1.
<mgrwt>
<rscale>  0 0.18356807E+03</rscale>
<asrwt>0</asrwt>
<pdfrwt beam="1">  1        2 0.65323252E-02 0.18816878E+03</pdfrwt>
<pdfrwt beam="2">  1       -2 0.11702565E+00 0.18816878E+03</pdfrwt>
<totfact> 0.64543390E+02</totfact>
</mgrwt>
</event>
<event>
 8    1  0.6836165E-004  0.1035601E+03  0.7546771E-02  0.1273784E+00
         -2   -1    0    0    0  501 -0.00000000000E+00  0.00000000000E+00  0.16319833530E+03  0.16319833530E+03  0.00000000000E+00 0.  1.
          2   -1    0    0  501    0  0.00000000000E+00 -0.00000000000E+00 -0.87226412731E+02  0.87226412731E+02  0.00000000000E+00 0. -1.
         23    2    1    2    0    0  0.45932639555E+02 -0.12143141382E+02  0.10137834017E+03  0.14379365858E+03  0.90231841020E+02 0.  0.
         23    2    1    2    0    0 -0.45932639555E+02  0.12143141382E+02 -0.25406417600E+02  0.10663108945E+03  0.92018693332E+02 0.  0.
          5    1    4    4  502    0  0.10687815359E+02  0.25816527604E+02  0.18236366689E+02  0.33695364143E+02  0.47000000000E+01 0. -1.
         -5    1    3    3    0  503 -0.12695687484E+02 -0.30514000321E+02  0.62724717530E+02  0.71054661251E+02  0.47000000000E+01 0.  1.
          5    1    3    3  503    0  0.58628327040E+02  0.18370858938E+02  0.38653622638E+02  0.72738997331E+02  0.47000000000E+01 0. -1.
         -5    1    4    4    0  502 -0.56620454914E+02 -0.13673386222E+02 -0.43642784289E+02  0.72935725306E+02  0.47000000000E+01 0.  1.
<mgrwt>
<rscale>  0 0.10316175E+03</rscale>
<asrwt>0</asrwt>
<pdfrwt beam="1">  1        2 0.13419448E-01 0.10356014E+03</pdfrwt>
<pdfrwt beam="2">  1       -2 0.25107436E-01 0.10356014E+03</pdfrwt>
<totfact> 0.58464564E+03</totfact>
</mgrwt>
</event>
<event>
 8    1  0.6836165E-004  0.1049097E+03  0.7546771E-02  0.1275547E+00
         -2   -1    0    0    0  501 -0.00000000000E+00  0.00000000000E+00  0.68721309742E+02  0.68721309742E+02  0.00000000000E+00 0.  1.
          2   -1    0    0  501    0  0.00000000000E+00 -0.00000000000E+00 -0.48603320869E+03  0.48603320869E+03  0.00000000000E+00 0. -1.
         23    2    1    2    0    0 -0.25480896415E+01 -0.26548018763E+02  0.20411776483E+02  0.10687699519E+03  0.10146310375E+03 0.  0.
         23    2    1    2    0    0  0.25480896415E+01  0.26548018763E+02 -0.43772367543E+03  0.44787752324E+03  0.90999833670E+02 0.  0.
          5    1    4    4  502    0 -0.41579226853E+02 -0.39764256857E+00 -0.22915075789E+03  0.23294022853E+03  0.47000000000E+01 0. -1.
         -5    1    3    3    0  503  0.46360926083E+02  0.42998996335E+01  0.68206743255E+01  0.47290973794E+02  0.47000000000E+01 0.  1.
          5    1    3    3  503    0 -0.48909015725E+02 -0.30847918396E+02  0.13591102157E+02  0.59586021401E+02  0.47000000000E+01 0. -1.
         -5    1    4    4    0  502  0.44127316494E+02  0.26945661331E+02 -0.20857291754E+03  0.21493729471E+03  0.47000000000E+01 0.  1.
<mgrwt>
<rscale>  0 0.10229289E+03</rscale>
<asrwt>0</asrwt>
<pdfrwt beam="1">  1        2 0.74774341E-01 0.10490973E+03</pdfrwt>
<pdfrwt beam="2">  1       -2 0.10572509E-01 0.10490973E+03</pdfrwt>
<totfact> 0.37339143E+03</totfact>
</mgrwt>
</event>
<event>
 8    1  0.6836165E-004  0.1196765E+03  0.7546771E-02  0.1245507E+00
          1   -1    0    0  501    0  0.00000000000E+00  0.00000000000E+00  0.16159132249E+03  0.16159132249E+03  0.00000000000E+00 0. -1.
         -1   -1    0    0    0  501 -0.00000000000E+00 -0.00000000000E+00 -0.99408567467E+02  0.99408567467E+02  0.00000000000E+00 0.  1.
         23    2    1    2    0    0  0.53000176531E+02 -0.44921209763E+02  0.79609712483E+02  0.14006122678E+03  0.91937517515E+02 0.  0.
         23    2    1    2    0    0 -0.53000176531E+02  0.44921209763E+02 -0.17426957456E+02  0.12093866318E+03  0.97444997854E+02 0.  0.
          5    1    4    4  502    0 -0.87630235078E+01 -0.21375480821E+02  0.21687178773E+02  0.32033193479E+02  0.47000000000E+01 0. -1.
         -5    1    3    3    0  503  0.53400932986E+01  0.21256315610E+02  0.47061571912E+02  0.52127047688E+02  0.47000000000E+01 0.  1.
          5    1    3    3  503    0  0.47660083232E+02 -0.66177525373E+02  0.32548140571E+02  0.87934179093E+02  0.47000000000E+01 0. -1.
         -5    1    4    4    0  502 -0.44237153023E+02  0.66296690583E+02 -0.39114136229E+02  0.88905469701E+02  0.47000000000E+01 0.  1.
<mgrwt>
<rscale>  0 0.11855069E+03</rscale>
<asrwt>0</asrwt>
<pdfrwt beam="1">  1        1 0.24860204E-01 0.11967649E+03</pdfrwt>
<pdfrwt beam="2">  1       -1 0.15293626E-01 0.11967649E+03</pdfrwt>
<totfact> 0.56724808E+03</totfact>
</mgrwt>
</event>
<event>
 8    1  0.6836165E-004  0.1126127E+03  0.7546771E-02  0.1257998E+00
         -1   -1    0    0    0  501 -0.00000000000E+00  0.00000000000E+00  0.22387907809E+02  0.22387907809E+02  0.00000000000E+00 0.  1.
          1   -1    0    0  501    0  0.00000000000E+00 -0.00000000000E+00 -0.55113411202E+03  0.55113411202E+03  0.00000000000E+00 0. -1.
         23    2    1    2    0    0  0.45746169108E+02  0.37676107976E+02 -0.30544791108E+03  0.32554578142E+03  0.95757131952E+02 0.  0.
         23    2    1    2    0    0 -0.45746169108E+02 -0.37676107976E+02 -0.22329829313E+03  0.24797623840E+03  0.90099311862E+02 0.  0.
          5    1    4    4  502    0 -0.33542134822E+02  0.23428334064E+02 -0.12392324163E+03  0.13058721783E+03  0.47000000000E+01 0. -1.
         -5    1    4    4    0  502 -0.12204034285E+02 -0.61104442040E+02 -0.99375051500E+02  0.11738902057E+03  0.47000000000E+01 0.  1.
          5    1    3    3  503    0  0.13959295991E+02  0.67304649414E+02 -0.18502612114E+03  0.19743741611E+03  0.47000000000E+01 0. -1.
         -5    1    3    3    0  503  0.31786873117E+02 -0.29628541438E+02 -0.12042178994E+03  0.12810836531E+03  0.47000000000E+01 0.  1.
<mgrwt>
<rscale>  0 0.11140085E+03</rscale>
<asrwt>0</asrwt>
<pdfrwt beam="1">  1        1 0.84789863E-01 0.11261274E+03</pdfrwt>
<pdfrwt beam="2">  1       -1 0.34442935E-02 0.11261274E+03</pdfrwt>
<totfact> 0.11409752E+04</totfact>
</mgrwt>
</event>
<event>
 8    1  0.6836165E-004  0.1016087E+03  0.7546771E-02  0.1277018E+00
         -2   -1    0    0    0  501 -0.00000000000E+00  0.00000000000E+00  0.25050597796E+02  0.25050597796E+02  0.00000000000E+00 0.  1.
          2   -1    0    0  501    0  0.00000000000E+00 -0.00000000000E+00 -0.70927456148E+03  0.70927456148E+03  0.00000000000E+00 0. -1.
         23    2    1    2    0    0 -0.43263797239E+02 -0.81419931150E+01 -0.10411976813E+03  0.14538949633E+03  0.91428285139E+02 0.  0.
         23    2    1    2    0    0  0.43263797239E+02  0.81419931150E+01 -0.58010419555E+03  0.58893566295E+03  0.91576684758E+02 0.  0.
          5    1    4    4  502    0  0.63970214999E+02  0.30108398550E+02 -0.38792842378E+03  0.39434661916E+03  0.47000000000E+01 0. -1.
         -5    1    4    4    0  502 -0.20706417760E+02 -0.21966405435E+02 -0.19217577177E+03  0.19458904378E+03  0.47000000000E+01 0.  1.
          5    1    3    3  503    0  0.25417233547E+02 -0.15733235175E+02 -0.45551890207E+02  0.54686699952E+02  0.47000000000E+01 0. -1.
         -5    1    3    3    0  503 -0.68681030787E+02  0.75912420601E+01 -0.58567877926E+02  0.90702796377E+02  0.47000000000E+01 0.  1.
<mgrwt>
<rscale>  0 0.10157530E+03</rscale>
<asrwt>0</asrwt>
<pdfrwt beam="1">  1        2 0.10911916E+00 0.10160875E+03</pdfrwt>
<pdfrwt beam="2">  1       -2 0.38539381E-02 0.10160875E+03</pdfrwt>
<totfact> 0.11234718E+04</totfact>
</mgrwt>
</event>
<event>
 8    1  0.6836165E-004  0.2222400E+03  0.7546771E-02  0.1132334E+00
          1   -1    0    0  501    0  0.00000000000E+00  0.00000000000E+00  0.43581563059E+03  0.43581563059E+03  0.00000000000E+00 0. -1.
         -1   -1    0    0    0  501 -0.00000000000E+00 -0.00000000000E+00 -0.14763329592E+03  0.14763329592E+03  0.00000000000E+00 0.  1.
         23    2    1    2    0    0 -0.14158414085E+02 -0.20132132653E+03  0.29948907318E+01  0.22226020444E+03  0.93058540197E+02 0.  0.
         23    2    1    2    0    0  0.14158414085E+02  0.20132132653E+03  0.28518744394E+03  0.36118872208E+03  0.91622473068E+02 0.  0.
          5    1    3    3  502    0 -0.33585441284E+02 -0.81587257982E+02  0.37616111151E+02  0.96028768342E+02  0.47000000000E+01 0. -1.
         -5    1    3    3    0  502  0.19427027199E+02 -0.11973406854E+03 -0.34621220419E+02  0.12623143610E+03  0.47000000000E+01 0.  1.
          5    1    4    4  503    0  0.44831145154E+02  0.12456470670E+03  0.21556053118E+03  0.25301112690E+03  0.47000000000E+01 0. -1.
         -5    1    4    4    0  503 -0.30672731069E+02  0.76756619823E+02  0.69626912753E+02  0.10817759517E+03  0.47000000000E+01 0.  1.
<mgrwt>
<rscale>  0 0.22209050E+03</rscale>
<asrwt>0</asrwt>
<pdfrwt beam="1">  1        1 0.67048558E-01 0.22224003E+03</pdfrwt>
<pdfrwt beam="2">  1       -1 0.22712815E-01 0.22224003E+03</pdfrwt>
<totfact> 0.88715763E+02</totfact>
</mgrwt>
</event>
<event>
 8    1  0.6836165E-004  0.1025212E+03  0.7546771E-02  0.1275726E+00
         -2   -1    0    0    0  501 -0.00000000000E+00  0.00000000000E+00  0.28690054281E+02  0.28690054281E+02  0.00000000000E+00 0.  1.
          2   -1    0    0  501    0  0.00000000000E+00 -0.00000000000E+00 -0.38636634800E+03  0.38636634800E+03  0.00000000000E+00 0. -1.
         23    2    1    2    0    0  0.22700452896E+02  0.38773212039E+02 -0.23005907682E+03  0.25135926016E+03  0.90750351574E+02 0.  0.
         23    2    1    2    0    0 -0.22700452896E+02 -0.38773212039E+02 -0.12761721691E+03  0.16369714212E+03  0.92151656275E+02 0.  0.
          5    1    4    4  502    0 -0.15808953094E+01 -0.66867553120E+02 -0.84554505743E+02  0.10791349930E+03  0.47000000000E+01 0. -1.
         -5    1    3    3    0  503  0.51280809695E+02  0.29558500292E+02 -0.88492902689E+02  0.10656692831E+03  0.47000000000E+01 0.  1.
          5    1    3    3  503    0 -0.28580356799E+02  0.92147117470E+01 -0.14156617413E+03  0.14479233186E+03  0.47000000000E+01 0. -1.
         -5    1    4    4    0  502 -0.21119557586E+02  0.28094341081E+02 -0.43062711162E+02  0.55783642818E+02  0.47000000000E+01 0.  1.
<mgrwt>
<rscale>  0 0.10220534E+03</rscale>
<asrwt>0</asrwt>
<pdfrwt beam="1">  1        2 0.59440978E-01 0.10252122E+03</pdfrwt>
<pdfrwt beam="2">  1       -2 0.44138544E-02 0.10252122E+03</pdfrwt>
<totfact> 0.17964309E+04</totfact>
</mgrwt>
</event>
<event>
 8    1  0.6836165E-004  0.9674268E+02  0.7546771E-02  0.1294600E+00
          1   -1    0    0  501    0  0.00000000000E+00  0.00000000000E+00  0.21987254473E+03  0.21987254473E+03  0.00000000000E+00 0. -1.
         -1   -1    0    0    0  501 -0.00000000000E+00 -0.00000000000E+00 -0.16812175722E+03  0.16812175722E+03  0.00000000000E+00 0.  1.
         23    2    1    2    0    0 -0.22359208647E+02  0.29503914695E+02 -0.14555215149E+03  0.16824991223E+03  0.75843186698E+02 0.  0.
         23    2    1    2    0    0  0.22359208647E+02 -0.29503914695E+02  0.19730293900E+03  0.21974438971E+03  0.89379706186E+02 0.  0.
          5    1    3    3  502    0  0.80460431519E+01  0.37698965494E+02 -0.32002733381E+02  0.50321126314E+02  0.47000000000E+01 0. -1.
         -5    1    4    4    0  503  0.88013178384E+01 -0.60563056510E+02  0.14223197358E+03  0.15491084958E+03  0.47000000000E+01 0.  1.
          5    1    4    4  503    0  0.13557890809E+02  0.31059141816E+02  0.55070965424E+02  0.64833540133E+02  0.47000000000E+01 0. -1.
         -5    1    3    3    0  502 -0.30405251799E+02 -0.81950507988E+01 -0.11354941811E+03  0.11792878592E+03  0.47000000000E+01 0.  1.
<mgrwt>
<rscale>  0 0.93496091E+02</rscale>
<asrwt>0</asrwt>
<pdfrwt beam="1">  1        1 0.33826545E-01 0.96742685E+02</pdfrwt>
<pdfrwt beam="2">  1       -1 0.25864886E-01 0.96742685E+02</pdfrwt>
<totfact> 0.16561409E+03</totfact>
</mgrwt>
</event>
<event>
 7    1  0.6836165E-004  0.1350556E+03  0.7546771E-02  0.1238146E+00
          2   -1    0    0  501    0  0.00000000000E+00  0.00000000000E+00  0.82197170945E+03  0.82197170945E+03  0.00000000000E+00 0. -1.
         -2   -1    0    0    0  501 -0.00000000000E+00 -0.00000000000E+00 -0.28169083458E+02  0.28169083458E+02  0.00000000000E+00 0.  1.
         23    2    1    2    0    0 -0.13319949881E+02 -0.10192879304E+02  0.77197722513E+02  0.12092025740E+03  0.91547279781E+02 0.  0.
          5    1    3    3  502    0  0.28494350634E+02  0.18412979535E+02  0.56333438723E+02  0.65928083179E+02  0.47000000000E+01 0. -1.
         -5    1    3    3    0  502 -0.41814300515E+02 -0.28605858839E+02  0.20864283790E+02  0.54992174221E+02  0.47000000000E+01 0.  1.
          5    1    1    2  503    0  0.37268353870E+02  0.50044464275E+02  0.60499655131E+03  0.60822388617E+03  0.47000000000E+01 0. -1.
         -5    1    1    2    0  503 -0.23948403988E+02 -0.39851584971E+02  0.11160835216E+03  0.12099664934E+03  0.47000000000E+01 0.  1.
<mgrwt>
<rscale>  0 0.12305180E+03</rscale>
<asrwt>0</asrwt>
<pdfrwt beam="1">  1        2 0.12645717E+00 0.13505555E+03</pdfrwt>
<pdfrwt beam="2">  1       -2 0.43337058E-02 0.13505555E+03</pdfrwt>
<totfact> 0.80380804E+03</totfact>
</mgrwt>
</event>
<event>
 8    1  0.6836165E-004  0.9647322E+02  0.7546771E-02  0.1289365E+00
         -2   -1    0    0    0  501 -0.00000000000E+00  0.00000000000E+00  0.47332112646E+02  0.47332112646E+02  0.00000000000E+00 0.  1.
          2   -1    0    0  501    0  0.00000000000E+00 -0.00000000000E+00 -0.46288493184E+03  0.46288493184E+03  0.00000000000E+00 0. -1.
         23    2    1    2    0    0 -0.65427949701E+01 -0.26995605122E+02 -0.11192728596E+02  0.94507813703E+02  0.89637485549E+02 0.  0.
         23    2    1    2    0    0  0.65427949701E+01  0.26995605122E+02 -0.40436009060E+03  0.41570923079E+03  0.92387828352E+02 0.  0.
          5    1    3    3  502    0 -0.46691684188E+00 -0.58022650046E+02  0.54530730250E+01  0.58469410251E+02  0.47000000000E+01 0.  1.
         -5    1    4    4    0  503  0.30921016284E+02 -0.23652268477E+02 -0.19363688351E+03  0.19756738523E+03  0.47000000000E+01 0.  1.
          5    1    4    4  503    0 -0.24378221314E+02  0.50647873599E+02 -0.21072320709E+03  0.21814184555E+03  0.47000000000E+01 0. -1.
         -5    1    3    3    0  502 -0.60758781282E+01  0.31027044924E+02 -0.16645801621E+02  0.36038403452E+02  0.47000000000E+01 0. -1.
<mgrwt>
<rscale>  0 0.95808751E+02</rscale>
<asrwt>0</asrwt>
<pdfrwt beam="1">  1        2 0.71213070E-01 0.96473217E+02</pdfrwt>
<pdfrwt beam="2">  1       -2 0.72818631E-02 0.96473217E+02</pdfrwt>
<totfact> 0.69624488E+03</totfact>
</mgrwt>
</event>
<event>
 8    1  0.6836165E-004  0.1962346E+03  0.7546771E-02  0.1153103E+00
         -3   -1    0    0    0  501 -0.00000000000E+00  0.00000000000E+00  0.24869910632E+03  0.24869910632E+03  0.00000000000E+00 0.  1.
          3   -1    0    0  501    0  0.00000000000E+00 -0.00000000000E+00 -0.16041019530E+03  0.16041019530E+03  0.00000000000E+00 0. -1.
         23    2    1    2    0    0 -0.15995258029E+03 -0.66467919431E+02  0.84134822651E+02  0.21351035257E+03  0.92223587100E+02 0.  0.
         23    2    1    2    0    0  0.15995258029E+03  0.66467919431E+02  0.41540883591E+01  0.19559894905E+03  0.90768277300E+02 0.  0.
          5    1    4    4  502    0  0.35089184740E+02  0.77869666228E+00 -0.34288556547E+02  0.49291503977E+02  0.47000000000E+01 0. -1.
         -5    1    3    3    0  503 -0.67945891943E+02  0.17870956455E+02  0.20525894217E+02  0.73344513428E+02  0.47000000000E+01 0.  1.
          5    1    3    3  503    0 -0.92006688347E+02 -0.84338875886E+02  0.63608928434E+02  0.14016583914E+03  0.47000000000E+01 0. -1.
         -5    1    4    4    0  502  0.12486339555E+03  0.65689222769E+02  0.38442644906E+02  0.14630744507E+03  0.47000000000E+01 0.  1.
<mgrwt>
<rscale>  0 0.19606441E+03</rscale>
<asrwt>0</asrwt>
<pdfrwt beam="1">  1        3 0.24678492E-01 0.19623456E+03</pdfrwt>
<pdfrwt beam="2">  1       -3 0.38261401E-01 0.19623456E+03</pdfrwt>
<totfact> 0.25372276E+02</totfact>
</mgrwt>
</event>
<event>
 8    1  0.6836165E-004  0.1588301E+03  0.7546771E-02  0.1190302E+00
          1   -1    0    0  501    0  0.00000000000E+00  0.00000000000E+00  0.48758072694E+03  0.48758072694E+03  0.00000000000E+00 0. -1.
         -1   -1    0    0    0  501 -0.00000000000E+00 -0.00000000000E+00 -0.59310980643E+02  0.59310980643E+02  0.00000000000E+00 0.  1.
         23    2    1    2    0    0  0.34090867590E+02  0.12500937039E+03  0.31442866137E+03  0.35226748072E+03  0.91855674542E+02 0.  0.
         23    2    1    2    0    0 -0.34090867590E+02 -0.12500937039E+03  0.11384108493E+03  0.19462422686E+03  0.90162448541E+02 0.  0.
          5    1    4    4  502    0 -0.37201067190E+02 -0.52917293822E+01  0.30865574023E+02  0.48853817248E+02  0.47000000000E+01 0. -1.
         -5    1    3    3    0  503  0.47079292153E+02  0.19184180943E+02  0.83517897505E+02  0.97886780270E+02  0.47000000000E+01 0.  1.
          5    1    3    3  503    0 -0.12988424563E+02  0.10582518944E+03  0.23091076386E+03  0.25438070045E+03  0.47000000000E+01 0. -1.
         -5    1    4    4    0  502  0.31101996004E+01 -0.11971764101E+03  0.82975510908E+02  0.14577040962E+03  0.47000000000E+01 0.  1.
<mgrwt>
<rscale>  0 0.15858622E+03</rscale>
<asrwt>0</asrwt>
<pdfrwt beam="1">  1        1 0.75012417E-01 0.15883008E+03</pdfrwt>
<pdfrwt beam="2">  1       -1 0.91247666E-02 0.15883008E+03</pdfrwt>
<totfact> 0.32117319E+03</totfact>
</mgrwt>
</event>
<event>
 8    1  0.6836165E-004  0.9154521E+02  0.7546771E-02  0.1304420E+00
         -2   -1    0    0    0  501 -0.00000000000E+00  0.00000000000E+00  0.18914685790E+02  0.18914685790E+02  0.00000000000E+00 0.  1.
          2   -1    0    0  501    0  0.00000000000E+00 -0.00000000000E+00 -0.53707751010E+03  0.53707751010E+03  0.00000000000E+00 0. -1.
         23    2    1    2    0    0 -0.22107751088E+01 -0.11704911529E+02 -0.11095563592E+03  0.13862159318E+03  0.82236855933E+02 0.  0.
         23    2    1    2    0    0  0.22107751088E+01  0.11704911529E+02 -0.40720718839E+03  0.41737060271E+03  0.90766917143E+02 0.  0.
          5    1    4    4  502    0 -0.38520204493E+01  0.50582381888E+02 -0.25860801048E+03  0.26357846745E+03  0.47000000000E+01 0. -1.
         -5    1    4    4    0  502  0.60627955581E+01 -0.38877470359E+02 -0.14859917791E+03  0.15379213526E+03  0.47000000000E+01 0.  1.
          5    1    3    3  503    0 -0.31986471027E+02  0.14340999058E+02 -0.82210895946E+02  0.89495921667E+02  0.47000000000E+01 0. -1.
         -5    1    3    3    0  503  0.29775695919E+02 -0.26045910587E+02 -0.28744739974E+02  0.49125671517E+02  0.47000000000E+01 0.  1.
<mgrwt>
<rscale>  0 0.89355349E+02</rscale>
<asrwt>0</asrwt>
<pdfrwt beam="1">  1        2 0.82627309E-01 0.91545211E+02</pdfrwt>
<pdfrwt beam="2">  1       -2 0.29099517E-02 0.91545211E+02</pdfrwt>
<totfact> 0.22998890E+04</totfact>
</mgrwt>
</event>
<event>
 8    1  0.6836165E-004  0.9348944E+02  0.7546771E-02  0.1295583E+00
          2   -1    0    0  501    0  0.00000000000E+00  0.00000000000E+00  0.89803448973E+02  0.89803448973E+02  0.00000000000E+00 0.  1.
         -2   -1    0    0    0  501 -0.00000000000E+00 -0.00000000000E+00 -0.10006722982E+03  0.10006722982E+03  0.00000000000E+00 0. -1.
         23    2    1    2    0    0 -0.15781652690E+02 -0.58554156540E+01 -0.25145510620E+02  0.95204208775E+02  0.90267370683E+02 0.  0.
         23    2    1    2    0    0  0.15781652690E+02  0.58554156540E+01  0.14881729773E+02  0.94666470019E+02  0.91961558331E+02 0.  0.
          5    1    4    4  502    0  0.29189634600E+02 -0.28475564289E+02 -0.18214878115E+02  0.44908399152E+02  0.47000000000E+01 0. -1.
         -5    1    4    4    0  502 -0.13407981910E+02  0.34330979943E+02  0.33096607888E+02  0.49758070867E+02  0.47000000000E+01 0.  1.
          5    1    3    3  503    0  0.36104913883E+02 -0.90386154304E+01 -0.58715494225E+00  0.37519276730E+02  0.47000000000E+01 0. -1.
         -5    1    3    3    0  503 -0.51886566573E+02  0.31831997764E+01 -0.24558355677E+02  0.57684932046E+02  0.47000000000E+01 0.  1.
<mgrwt>
<rscale>  0 0.93070125E+02</rscale>
<asrwt>0</asrwt>
<pdfrwt beam="1">  1        2 0.13815915E-01 0.93489436E+02</pdfrwt>
<pdfrwt beam="2">  1       -2 0.15394958E-01 0.93489436E+02</pdfrwt>
<totfact> 0.12715501E+04</totfact>
</mgrwt>
</event>
<event>
 8    1  0.6836165E-004  0.1081116E+03  0.7546771E-02  0.1265023E+00
          1   -1    0    0  501    0  0.00000000000E+00  0.00000000000E+00  0.53898881867E+02  0.53898881867E+02  0.00000000000E+00 0. -1.
         -1   -1    0    0    0  501 -0.00000000000E+00 -0.00000000000E+00 -0.35259715130E+03  0.35259715130E+03  0.00000000000E+00 0.  1.
         23    2    1    2    0    0  0.39236160129E+02  0.38502686805E+02 -0.20674379520E+02  0.10819183420E+03  0.90863138101E+02 0.  0.
         23    2    1    2    0    0 -0.39236160129E+02 -0.38502686805E+02 -0.27802388991E+03  0.29830419897E+03  0.93092312293E+02 0.  0.
          5    1    3    3  502    0  0.21085789994E+02  0.65451158360E+02 -0.28268219457E+02  0.74495952250E+02  0.47000000000E+01 0. -1.
         -5    1    4    4    0  503 -0.37167135659E+01 -0.63906649145E+02 -0.16392322612E+03  0.17604200586E+03  0.47000000000E+01 0.  1.
          5    1    4    4  503    0 -0.35519446564E+02  0.25403962340E+02 -0.11410066379E+03  0.12226219311E+03  0.47000000000E+01 0. -1.
         -5    1    3    3    0  502  0.18150370136E+02 -0.26948471555E+02  0.75938399369E+01  0.33695881947E+02  0.47000000000E+01 0.  1.
<mgrwt>
<rscale>  0 0.10763000E+03</rscale>
<asrwt>0</asrwt>
<pdfrwt beam="1">  1        1 0.82921356E-02 0.10811157E+03</pdfrwt>
<pdfrwt beam="2">  1       -1 0.54245716E-01 0.10811157E+03</pdfrwt>
<totfact> 0.27823404E+03</totfact>
</mgrwt>
</event>
<event>
 8    1  0.6836165E-004  0.9630121E+02  0.7546771E-02  0.1288960E+00
         -1   -1    0    0    0  501 -0.00000000000E+00  0.00000000000E+00  0.47875450016E+02  0.47875450016E+02  0.00000000000E+00 0.  1.
          1   -1    0    0  501    0  0.00000000000E+00 -0.00000000000E+00 -0.47161446950E+03  0.47161446950E+03  0.00000000000E+00 0. -1.
         23    2    1    2    0    0  0.53955914836E+01  0.26223235004E+02 -0.12149672250E+02  0.97064610085E+02  0.92504883836E+02 0.  0.
         23    2    1    2    0    0 -0.53955914836E+01 -0.26223235004E+02 -0.41158934724E+03  0.42242530943E+03  0.91217217841E+02 0.  0.
          5    1    3    3  502    0  0.37041255023E+02  0.66161521086E+01 -0.36257556799E+02  0.52464544861E+02  0.47000000000E+01 0. -1.
         -5    1    3    3    0  502 -0.31645663539E+02  0.19607082896E+02  0.24107884549E+02  0.44600065224E+02  0.47000000000E+01 0.  1.
          5    1    4    4  503    0 -0.33867501151E+02 -0.46879503538E+02 -0.29071633690E+03  0.29645028930E+03  0.47000000000E+01 0. -1.
         -5    1    4    4    0  503  0.28471909667E+02  0.20656268533E+02 -0.12087301033E+03  0.12597502013E+03  0.47000000000E+01 0.  1.
<mgrwt>
<rscale>  0 0.95990658E+02</rscale>
<asrwt>0</asrwt>
<pdfrwt beam="1">  1        1 0.72556074E-01 0.96301215E+02</pdfrwt>
<pdfrwt beam="2">  1       -1 0.73654537E-02 0.96301215E+02</pdfrwt>
<totfact> 0.45200708E+03</totfact>
</mgrwt>
</event>
<event>
 8    1  0.6836165E-004  0.1283617E+03  0.7546771E-02  0.1234717E+00
         -2   -1    0    0    0  501 -0.00000000000E+00  0.00000000000E+00  0.65199046504E+03  0.65199046504E+03  0.00000000000E+00 0.  1.
          2   -1    0    0  501    0  0.00000000000E+00 -0.00000000000E+00 -0.41153682498E+02  0.41153682498E+02  0.00000000000E+00 0. -1.
         23    2    1    2    0    0 -0.39392996218E+02  0.65113091212E+02  0.54419618185E+03  0.55912986892E+03  0.10336925641E+03 0.  0.
         23    2    1    2    0    0  0.39392996218E+02 -0.65113091212E+02  0.66640600686E+02  0.13401427862E+03  0.87905258184E+02 0.  0.
          5    1    4    4  502    0 -0.61604216482E+01 -0.69140083332E+02  0.32722119077E+02  0.76883866935E+02  0.47000000000E+01 0. -1.
         -5    1    3    3    0  503 -0.72575842742E+02  0.57466766756E+02  0.35918705867E+03  0.37095433054E+03  0.47000000000E+01 0.  1.
          5    1    3    3  503    0  0.33182846525E+02  0.76463244563E+01  0.18500912318E+03  0.18817553837E+03  0.47000000000E+01 0. -1.
         -5    1    4    4    0  502  0.45553417866E+02  0.40269921196E+01  0.33918481609E+02  0.57130411686E+02  0.47000000000E+01 0.  1.
<mgrwt>
<rscale>  0 0.12522588E+03</rscale>
<asrwt>0</asrwt>
<pdfrwt beam="1">  1        2 0.63313363E-02 0.12836170E+03</pdfrwt>
<pdfrwt beam="2">  1       -2 0.10030622E+00 0.12836170E+03</pdfrwt>
<totfact> 0.95138382E+02</totfact>
</mgrwt>
</event>
<event>
 8    1  0.6836165E-004  0.9771041E+02  0.7546771E-02  0.1286576E+00
          3   -1    0    0  501    0  0.00000000000E+00  0.00000000000E+00  0.85204660549E+02  0.85204660549E+02  0.00000000000E+00 0. -1.
         -3   -1    0    0    0  501 -0.00000000000E+00 -0.00000000000E+00 -0.11203053459E+03  0.11203053459E+03  0.00000000000E+00 0.  1.
         23    2    1    2    0    0 -0.15406526514E+02 -0.25227555118E+02  0.21697384362E+01  0.97734494559E+02  0.93131804800E+02 0.  0.
         23    2    1    2    0    0  0.15406526514E+02  0.25227555118E+02 -0.28995612476E+02  0.99500700580E+02  0.90475705449E+02 0.  0.
          5    1    3    3  502    0  0.15438742531E+02 -0.18717235503E+02  0.40769985385E+02  0.47675689655E+02  0.47000000000E+01 0. -1.
         -5    1    3    3    0  502 -0.30845269045E+02 -0.65103196149E+01 -0.38600246948E+02  0.50058804904E+02  0.47000000000E+01 0.  1.
          5    1    4    4  503    0  0.27232815520E+02  0.50678726043E+02 -0.38631271704E+02  0.69458078493E+02  0.47000000000E+01 0. -1.
         -5    1    4    4    0  503 -0.11826289006E+02 -0.25451170925E+02  0.96356592279E+01  0.30042622087E+02  0.47000000000E+01 0.  1.
<mgrwt>
<rscale>  0 0.97072119E+02</rscale>
<asrwt>0</asrwt>
<pdfrwt beam="1">  1        3 0.13108409E-01 0.97710407E+02</pdfrwt>
<pdfrwt beam="2">  1       -3 0.17235467E-01 0.97710407E+02</pdfrwt>
<totfact> 0.29223439E+03</totfact>
</mgrwt>
</event>
<event>
 8    1  0.6836165E-004  0.9706874E+02  0.7546771E-02  0.1287732E+00
         -3   -1    0    0    0  501 -0.00000000000E+00  0.00000000000E+00  0.36577281560E+03  0.36577281560E+03  0.00000000000E+00 0.  1.
          3   -1    0    0  501    0  0.00000000000E+00 -0.00000000000E+00 -0.25328108255E+02  0.25328108255E+02  0.00000000000E+00 0. -1.
         23    2    1    2    0    0  0.21150982791E+02  0.15159686115E+02  0.15884498712E+03  0.18615603661E+03  0.93515559539E+02 0.  0.
         23    2    1    2    0    0 -0.21150982791E+02 -0.15159686115E+02  0.18159972023E+03  0.20494488725E+03  0.91360649445E+02 0.  0.
          5    1    4    4  502    0  0.20986254734E+01  0.34187417467E+02  0.38586655227E+02  0.51809301323E+02  0.47000000000E+01 0. -1.
         -5    1    3    3    0  503 -0.35694638338E+02  0.27326798417E+01  0.40917617419E+02  0.54570286424E+02  0.47000000000E+01 0.  1.
          5    1    3    3  503    0  0.56845621129E+02  0.12427006273E+02  0.11792736970E+03  0.13158575018E+03  0.47000000000E+01 0. -1.
         -5    1    4    4    0  502 -0.23249608264E+02 -0.49347103582E+02  0.14301306500E+03  0.15313558593E+03  0.47000000000E+01 0.  1.
<mgrwt>
<rscale>  0 0.96545962E+02</rscale>
<asrwt>0</asrwt>
<pdfrwt beam="1">  1        3 0.38966323E-02 0.97068739E+02</pdfrwt>
<pdfrwt beam="2">  1       -3 0.56272737E-01 0.97068739E+02</pdfrwt>
<totfact> 0.22857268E+03</totfact>
</mgrwt>
</event>
<event>
 8    1  0.6836165E-004  0.3184307E+03  0.7546771E-02  0.1076429E+00
          1   -1    0    0  501    0  0.00000000000E+00  0.00000000000E+00  0.26954411952E+04  0.26954411952E+04  0.00000000000E+00 0. -1.
         -1   -1    0    0    0  501 -0.00000000000E+00 -0.00000000000E+00 -0.40801537079E+02  0.40801537079E+02  0.00000000000E+00 0.  1.
         23    2    1    2    0    0  0.30426744609E+03 -0.19688597076E+02  0.17137297336E+04  0.17430627431E+04  0.91824870497E+02 0.  0.
         23    2    1    2    0    0 -0.30426744609E+03  0.19688597076E+02  0.94090992449E+03  0.99317998918E+03  0.90159221919E+02 0.  0.
          5    1    4    4  502    0 -0.28218144744E+03  0.62186138755E+01  0.90905188226E+03  0.95187312971E+03  0.47000000000E+01 0. -1.
         -5    1    4    4    0  502 -0.22085998656E+02  0.13469983200E+02  0.31858042234E+02  0.41306859467E+02  0.47000000000E+01 0.  1.
          5    1    3    3  503    0  0.15814240734E+03  0.28307101909E+02  0.74035393622E+03  0.75759907200E+03  0.47000000000E+01 0.  1.
         -5    1    3    3    0  503  0.14612503875E+03 -0.47995698985E+02  0.97337579742E+03  0.98546367111E+03  0.47000000000E+01 0. -1.
<mgrwt>
<rscale>  0 0.31831158E+03</rscale>
<asrwt>0</asrwt>
<pdfrwt beam="1">  1        1 0.41468312E+00 0.31843072E+03</pdfrwt>
<pdfrwt beam="2">  1       -1 0.62771617E-02 0.31843072E+03</pdfrwt>
<totfact> 0.14455654E+02</totfact>
</mgrwt>
</event>
<event>
 8    1  0.6836165E-004  0.9645219E+02  0.7546771E-02  0.1288665E+00
         -1   -1    0    0    0  501 -0.00000000000E+00  0.00000000000E+00  0.44648647370E+03  0.44648647370E+03  0.00000000000E+00 0.  1.
          1   -1    0    0  501    0  0.00000000000E+00 -0.00000000000E+00 -0.21203428966E+02  0.21203428966E+02  0.00000000000E+00 0. -1.
         23    2    1    2    0    0  0.49488892047E+00  0.24507679794E+02  0.25213769377E+03  0.26949217945E+03  0.91933382857E+02 0.  0.
         23    2    1    2    0    0 -0.49488892047E+00 -0.24507679794E+02  0.17314535097E+03  0.19819772322E+03  0.93285334551E+02 0.  0.
          5    1    4    4  502    0 -0.23031468216E+02 -0.48642289732E+02  0.62391783760E+02  0.82530876399E+02  0.47000000000E+01 0. -1.
         -5    1    3    3    0  503  0.22732584035E+02  0.52912933700E+02  0.13529085625E+03  0.14711306779E+03  0.47000000000E+01 0.  1.
          5    1    3    3  503    0 -0.22237695114E+02 -0.28405253906E+02  0.11684683752E+03  0.12237911166E+03  0.47000000000E+01 0. -1.
         -5    1    4    4    0  502  0.22536579295E+02  0.24134609938E+02  0.11075356721E+03  0.11566684682E+03  0.47000000000E+01 0.  1.
<mgrwt>
<rscale>  0 0.96123781E+02</rscale>
<asrwt>0</asrwt>
<pdfrwt beam="1">  1        1 0.32620663E-02 0.96452190E+02</pdfrwt>
<pdfrwt beam="2">  1       -1 0.68690220E-01 0.96452190E+02</pdfrwt>
<totfact> 0.62297689E+03</totfact>
</mgrwt>
</event>
<event>
 8    1  0.6836165E-004  0.9255747E+02  0.7546771E-02  0.1297311E+00
         -1   -1    0    0    0  501 -0.00000000000E+00  0.00000000000E+00  0.60709504255E+02  0.60709504255E+02  0.00000000000E+00 0.  1.
          1   -1    0    0  501    0  0.00000000000E+00 -0.00000000000E+00 -0.14238633609E+03  0.14238633609E+03  0.00000000000E+00 0. -1.
         23    2    1    2    0    0  0.15143390939E+02  0.13899488866E+01 -0.54538106817E+02  0.10664172461E+03  0.90370338523E+02 0.  0.
         23    2    1    2    0    0 -0.15143390939E+02 -0.13899488866E+01 -0.27138725021E+02  0.96454115743E+02  0.91299681275E+02 0.  0.
          5    1    3    3  502    0 -0.11123028732E+02  0.17852079991E+02 -0.68873400174E+02  0.72166846819E+02  0.47000000000E+01 0. -1.
         -5    1    3    3    0  502  0.26266419671E+02 -0.16462131105E+02  0.14335293357E+02  0.34474877788E+02  0.47000000000E+01 0.  1.
          5    1    4    4  503    0 -0.49713170079E+02 -0.15724699903E+02 -0.46916700499E+01  0.52562032249E+02  0.47000000000E+01 0. -1.
         -5    1    4    4    0  503  0.34569779140E+02  0.14334751016E+02 -0.22447054972E+02  0.43892083494E+02  0.47000000000E+01 0.  1.
<mgrwt>
<rscale>  0 0.92327472E+02</rscale>
<asrwt>0</asrwt>
<pdfrwt beam="1">  1        1 0.21905590E-01 0.92557474E+02</pdfrwt>
<pdfrwt beam="2">  1       -1 0.93399240E-02 0.92557474E+02</pdfrwt>
<totfact> 0.13849511E+04</totfact>
</mgrwt>
</event>
<event>
 8    1  0.6836165E-004  0.9239159E+02  0.7546771E-02  0.1297861E+00
          1   -1    0    0  501    0  0.00000000000E+00  0.00000000000E+00  0.22049094676E+02  0.22049094676E+02  0.00000000000E+00 0. -1.
         -1   -1    0    0    0  501 -0.00000000000E+00 -0.00000000000E+00 -0.42259311765E+03  0.42259311765E+03  0.00000000000E+00 0.  1.
         23    2    1    2    0    0  0.91494891558E+00 -0.15506280400E+02 -0.26784861402E+03  0.28295029051E+03  0.89870490164E+02 0.  0.
         23    2    1    2    0    0 -0.91494891558E+00  0.15506280400E+02 -0.13269540895E+03  0.16169192181E+03  0.91076474243E+02 0.  0.
          5    1    4    4  502    0 -0.30056120254E+02  0.36506642312E+02 -0.39809573468E+02  0.61991914290E+02  0.47000000000E+01 0. -1.
         -5    1    4    4    0  502  0.29141171339E+02 -0.21000361911E+02 -0.92885835480E+02  0.99700007523E+02  0.47000000000E+01 0.  1.
          5    1    3    3  503    0 -0.29382183272E+02 -0.40681553738E+02 -0.17152974755E+03  0.17878155890E+03  0.47000000000E+01 0. -1.
         -5    1    3    3    0  503  0.30297132188E+02  0.25175273338E+02 -0.96318866470E+02  0.10416873161E+03  0.47000000000E+01 0.  1.
<mgrwt>
<rscale>  0 0.92092998E+02</rscale>
<asrwt>0</asrwt>
<pdfrwt beam="1">  1        1 0.33921684E-02 0.92391591E+02</pdfrwt>
<pdfrwt beam="2">  1       -1 0.65014325E-01 0.92391591E+02</pdfrwt>
<totfact> 0.65426184E+03</totfact>
</mgrwt>
</event>
<event>
 8    1  0.6836165E-004  0.9693613E+02  0.7546771E-02  0.1288653E+00
         -3   -1    0    0    0  501 -0.00000000000E+00  0.00000000000E+00  0.21882814425E+03  0.21882814425E+03  0.00000000000E+00 0.  1.
          3   -1    0    0  501    0  0.00000000000E+00 -0.00000000000E+00 -0.66955777614E+02  0.66955777614E+02  0.00000000000E+00 0. -1.
         23    2    1    2    0    0  0.10001382876E+02  0.14641559744E+02 -0.11305744300E+02  0.97593206435E+02  0.95300635659E+02 0.  0.
         23    2    1    2    0    0 -0.10001382876E+02 -0.14641559744E+02  0.16317811094E+03  0.18819071543E+03  0.92055670950E+02 0.  0.
          5    1    3    3  502    0  0.45888385050E+02  0.32189968918E+02 -0.11281744154E+02  0.57369902672E+02  0.47000000000E+01 0. -1.
         -5    1    4    4    0  503 -0.47194926377E+02 -0.20423009151E+02  0.12046080274E+03  0.13106241023E+03  0.47000000000E+01 0.  1.
          5    1    4    4  503    0  0.37193543501E+02  0.57814494074E+01  0.42717308192E+02  0.57128305196E+02  0.47000000000E+01 0. -1.
         -5    1    3    3    0  502 -0.35887002174E+02 -0.17548409175E+02 -0.24000146190E-01  0.40223303763E+02  0.47000000000E+01 0.  1.
<mgrwt>
<rscale>  0 0.96129025E+02</rscale>
<asrwt>0</asrwt>
<pdfrwt beam="1">  1        3 0.10300889E-01 0.96936134E+02</pdfrwt>
<pdfrwt beam="2">  1       -3 0.33665868E-01 0.96936134E+02</pdfrwt>
<totfact> 0.13154190E+03</totfact>
</mgrwt>
</event>
<event>
 8    1  0.6836165E-004  0.9530719E+02  0.7546771E-02  0.1294868E+00
          1   -1    0    0  501    0  0.00000000000E+00  0.00000000000E+00  0.10337889430E+04  0.10337889430E+04  0.00000000000E+00 0. -1.
         -1   -1    0    0    0  501 -0.00000000000E+00 -0.00000000000E+00 -0.81650937083E+01  0.81650937083E+01  0.00000000000E+00 0.  1.
         23    2    1    2    0    0  0.20816679896E+02 -0.57455498959E+00  0.53454737063E+03  0.54171452492E+03  0.85323330846E+02 0.  0.
         23    2    1    2    0    0 -0.20816679896E+02  0.57455498959E+00  0.49107647864E+03  0.50023951177E+03  0.93004284759E+02 0.  0.
          5    1    3    3  502    0 -0.19109364886E+02  0.28260445207E+02  0.30236427488E+03  0.30431901898E+03  0.47000000000E+01 0. -1.
         -5    1    4    4    0  503 -0.24494823551E+02 -0.43865766970E+02  0.25696796701E+03  0.26187559635E+03  0.47000000000E+01 0.  1.
          5    1    4    4  503    0  0.36781436552E+01  0.44440321960E+02  0.23410851163E+03  0.23836391542E+03  0.47000000000E+01 0. -1.
         -5    1    3    3    0  502  0.39926044781E+02 -0.28835000197E+02  0.23218309575E+03  0.23739550594E+03  0.47000000000E+01 0.  1.
<mgrwt>
<rscale>  0 0.93379674E+02</rscale>
<asrwt>0</asrwt>
<pdfrwt beam="1">  1        1 0.15904435E+00 0.95307194E+02</pdfrwt>
<pdfrwt beam="2">  1       -1 0.12561691E-02 0.95307194E+02</pdfrwt>
<totfact> 0.18936700E+04</totfact>
</mgrwt>
</event>
<event>
 8    1  0.6836165E-004  0.1052591E+03  0.7546771E-02  0.1270499E+00
         -2   -1    0    0    0  501 -0.00000000000E+00  0.00000000000E+00  0.21628826539E+02  0.21628826539E+02  0.00000000000E+00 0.  1.
          2   -1    0    0  501    0  0.00000000000E+00 -0.00000000000E+00 -0.70532375110E+03  0.70532375110E+03  0.00000000000E+00 0. -1.
         23    2    1    2    0    0 -0.14877524512E+02 -0.43994863591E+02 -0.53414662979E+03  0.54407507783E+03  0.92456365103E+02 0.  0.
         23    2    1    2    0    0  0.14877524512E+02  0.43994863591E+02 -0.14954829478E+03  0.18287749981E+03  0.94459508297E+02 0.  0.
          5    1    4    4  502    0  0.86000644632E+01 -0.25794622538E+02 -0.77493099834E+02  0.82259310613E+02  0.47000000000E+01 0. -1.
         -5    1    4    4    0  502  0.62774600490E+01  0.69789486129E+02 -0.72055194941E+02  0.10061818919E+03  0.47000000000E+01 0.  1.
          5    1    3    3  503    0  0.25712278162E+02 -0.54830339345E+02 -0.33947964208E+03  0.34487099726E+03  0.47000000000E+01 0. -1.
         -5    1    3    3    0  503 -0.40589802674E+02  0.10835475754E+02 -0.19466698771E+03  0.19920408058E+03  0.47000000000E+01 0.  1.
<mgrwt>
<rscale>  0 0.10480779E+03</rscale>
<asrwt>0</asrwt>
<pdfrwt beam="1">  1        2 0.10851134E+00 0.10525914E+03</pdfrwt>
<pdfrwt beam="2">  1       -2 0.33275119E-02 0.10525914E+03</pdfrwt>
<totfact> 0.14069705E+04</totfact>
</mgrwt>
</event>
<event>
 8    1  0.6836165E-004  0.1031258E+03  0.7546771E-02  0.1275528E+00
         -4   -1    0    0    0  501 -0.00000000000E+00  0.00000000000E+00  0.47056225266E+03  0.47056225266E+03  0.00000000000E+00 0.  1.
          4   -1    0    0  501    0  0.00000000000E+00 -0.00000000000E+00 -0.33477943200E+02  0.33477943200E+02  0.00000000000E+00 0. -1.
         23    2    1    2    0    0 -0.33051151221E+02  0.27095082271E+02  0.36449233987E+03  0.37792706071E+03  0.90264474265E+02 0.  0.
         23    2    1    2    0    0  0.33051151221E+02 -0.27095082271E+02  0.72591969593E+02  0.12611313515E+03  0.93853112510E+02 0.  0.
          5    1    3    3  502    0  0.23274146679E+02 -0.11538955627E+02  0.55744246218E+02  0.61679367595E+02  0.47000000000E+01 0. -1.
         -5    1    4    4    0  503 -0.14093134044E+02 -0.48536073182E+02  0.41146739416E+02  0.65341495175E+02  0.47000000000E+01 0.  1.
          5    1    4    4  503    0  0.47144285266E+02  0.21440990911E+02  0.31445230177E+02  0.60771639976E+02  0.47000000000E+01 0. -1.
         -5    1    3    3    0  502 -0.56325297900E+02  0.38634037898E+02  0.30874809365E+03  0.31624769312E+03  0.47000000000E+01 0.  1.
<mgrwt>
<rscale>  0 0.10230226E+03</rscale>
<asrwt>0</asrwt>
<pdfrwt beam="1">  1        4 0.51504531E-02 0.10312579E+03</pdfrwt>
<pdfrwt beam="2">  1       -4 0.72394188E-01 0.10312579E+03</pdfrwt>
<totfact> 0.63071006E+02</totfact>
</mgrwt>
</event>
<event>
 8    1  0.6836165E-004  0.1030195E+03  0.7546771E-02  0.1278678E+00
         -1   -1    0    0    0  501 -0.00000000000E+00  0.00000000000E+00  0.20843513761E+02  0.20843513761E+02  0.00000000000E+00 0.  1.
          1   -1    0    0  501    0  0.00000000000E+00 -0.00000000000E+00 -0.48296983400E+03  0.48296983400E+03  0.00000000000E+00 0. -1.
         23    2    1    2    0    0  0.47534697410E+01  0.28083731651E+02 -0.26683070838E+03  0.28301163154E+03  0.89920326925E+02 0.  0.
         23    2    1    2    0    0 -0.47534697410E+01 -0.28083731651E+02 -0.19529561187E+03  0.22080171623E+03  0.99003688908E+02 0.  0.
          5    1    4    4  502    0  0.33032337569E+02 -0.99427960634E+01 -0.16559716821E+03  0.16921733552E+03  0.47000000000E+01 0. -1.
         -5    1    3    3    0  503  0.36765306220E+02  0.40901176864E+02 -0.20229904909E+03  0.20969403729E+03  0.47000000000E+01 0.  1.
          5    1    3    3  503    0 -0.32011836479E+02 -0.12817445213E+02 -0.64531659288E+02  0.73317594253E+02  0.47000000000E+01 0. -1.
         -5    1    4    4    0  502 -0.37785807310E+02 -0.18140935587E+02 -0.29698443651E+02  0.51584380711E+02  0.47000000000E+01 0.  1.
<mgrwt>
<rscale>  0 0.10077315E+03</rscale>
<asrwt>0</asrwt>
<pdfrwt beam="1">  1        1 0.74303051E-01 0.10301952E+03</pdfrwt>
<pdfrwt beam="2">  1       -1 0.32066944E-02 0.10301952E+03</pdfrwt>
<totfact> 0.14918463E+04</totfact>
</mgrwt>
</event>
<event>
 8    1  0.6836165E-004  0.9524832E+02  0.7546771E-02  0.1290936E+00
          1   -1    0    0  501    0  0.00000000000E+00  0.00000000000E+00  0.43570986792E+03  0.43570986792E+03  0.00000000000E+00 0. -1.
         -1   -1    0    0    0  501 -0.00000000000E+00 -0.00000000000E+00 -0.20963152672E+02  0.20963152672E+02  0.00000000000E+00 0.  1.
         23    2    1    2    0    0 -0.23967028007E+02  0.11180666677E+01  0.18110114903E+03  0.20435874624E+03  0.91592589669E+02 0.  0.
         23    2    1    2    0    0  0.23967028007E+02 -0.11180666677E+01  0.23364556622E+03  0.25231427435E+03  0.92176862181E+02 0.  0.
          5    1    4    4  502    0  0.26379043754E+02 -0.31604235899E+02  0.20811758915E+03  0.21220203248E+03  0.47000000000E+01 0. -1.
         -5    1    3    3    0  503 -0.28900032134E+02  0.43107256096E+02  0.96987063472E+02  0.11010008114E+03  0.47000000000E+01 0.  1.
          5    1    3    3  503    0  0.49330041272E+01 -0.41989189429E+02  0.84114085557E+02  0.94258665106E+02  0.47000000000E+01 0. -1.
         -5    1    4    4    0  502 -0.24120157471E+01  0.30486169231E+02  0.25527977073E+02  0.40112241869E+02  0.47000000000E+01 0.  1.
<mgrwt>
<rscale>  0 0.95106675E+02</rscale>
<asrwt>0</asrwt>
<pdfrwt beam="1">  1        1 0.67032281E-01 0.95248320E+02</pdfrwt>
<pdfrwt beam="2">  1       -1 0.32251007E-02 0.95248320E+02</pdfrwt>
<totfact> 0.16740288E+04</totfact>
</mgrwt>
</event>
<event>
 8    1  0.6836165E-004  0.9464097E+02  0.7546771E-02  0.1292829E+00
          1   -1    0    0  501    0  0.00000000000E+00  0.00000000000E+00  0.60943841636E+02  0.60943841636E+02  0.00000000000E+00 0. -1.
         -1   -1    0    0    0  501 -0.00000000000E+00 -0.00000000000E+00 -0.33871324382E+03  0.33871324382E+03  0.00000000000E+00 0.  1.
         23    2    1    2    0    0  0.20798382646E+02  0.15830414635E+02 -0.29059020057E+03  0.30561344575E+03  0.90960094561E+02 0.  0.
         23    2    1    2    0    0 -0.20798382646E+02 -0.15830414635E+02  0.12820798392E+02  0.94043639708E+02  0.89424037876E+02 0.  0.
          5    1    4    4  502    0 -0.43195583004E+02  0.10743710836E+00  0.37048706220E+02  0.57101370967E+02  0.47000000000E+01 0. -1.
         -5    1    3    3    0  503  0.45752897565E+02 -0.13637129532E+01 -0.25276192170E+03  0.25691606881E+03  0.47000000000E+01 0.  1.
          5    1    3    3  503    0 -0.24954514919E+02  0.17194127588E+02 -0.37828278874E+02  0.48697376941E+02  0.47000000000E+01 0. -1.
         -5    1    4    4    0  502  0.22397200358E+02 -0.15937851743E+02 -0.24227907828E+02  0.36942268741E+02  0.47000000000E+01 0.  1.
<mgrwt>
<rscale>  0 0.94269959E+02</rscale>
<asrwt>0</asrwt>
<pdfrwt beam="1">  1        1 0.93759757E-02 0.94640972E+02</pdfrwt>
<pdfrwt beam="2">  1       -1 0.52109729E-01 0.94640972E+02</pdfrwt>
<totfact> 0.25264227E+03</totfact>
</mgrwt>
</event>
<event>
 8    1  0.6836165E-004  0.1235070E+03  0.7546771E-02  0.1237875E+00
          1   -1    0    0  501    0  0.00000000000E+00  0.00000000000E+00  0.71351675538E+03  0.71351675538E+03  0.00000000000E+00 0. -1.
         -1   -1    0    0    0  501 -0.00000000000E+00 -0.00000000000E+00 -0.21190443939E+02  0.21190443939E+02  0.00000000000E+00 0.  1.
         23    2    1    2    0    0 -0.16254770284E+02  0.80360877181E+02  0.33721184753E+03  0.35872812468E+03  0.90840239911E+02 0.  0.
         23    2    1    2    0    0  0.16254770284E+02 -0.80360877181E+02  0.35511446391E+03  0.37597907464E+03  0.92368251827E+02 0.  0.
          5    1    3    3  502    0 -0.19442621839E+02  0.41365194998E+02  0.30323396804E+03  0.30669532809E+03  0.47000000000E+01 0. -1.
         -5    1    3    3    0  502  0.31878515554E+01  0.38995682183E+02  0.33977879489E+02  0.52032796591E+02  0.47000000000E+01 0.  1.
          5    1    4    4  503    0  0.82845583111E+01  0.18975788176E+02  0.37854906266E+02  0.43402746131E+02  0.47000000000E+01 0. -1.
         -5    1    4    4    0  503  0.79702119730E+01 -0.99336665358E+02  0.31725955765E+03  0.33257632850E+03  0.47000000000E+01 0.  1.
<mgrwt>
<rscale>  0 0.12322138E+03</rscale>
<asrwt>0</asrwt>
<pdfrwt beam="1">  1        1 0.10977179E+00 0.12350701E+03</pdfrwt>
<pdfrwt beam="2">  1       -1 0.32600688E-02 0.12350701E+03</pdfrwt>
<totfact> 0.87253022E+03</totfact>
</mgrwt>
</event>
<event>
 8    1  0.6836165E-004  0.1060370E+03  0.7546771E-02  0.1269915E+00
         -2   -1    0    0    0  501 -0.00000000000E+00  0.00000000000E+00  0.59363217872E+02  0.59363217872E+02  0.00000000000E+00 0.  1.
          2   -1    0    0  501    0  0.00000000000E+00 -0.00000000000E+00 -0.21088498818E+03  0.21088498818E+03  0.00000000000E+00 0. -1.
         23    2    1    2    0    0 -0.46365925842E+02  0.12027987023E+02 -0.12615175475E+03  0.16479721205E+03  0.94601185630E+02 0.  0.
         23    2    1    2    0    0  0.46365925842E+02 -0.12027987023E+02 -0.25370015558E+02  0.10545099400E+03  0.90453318871E+02 0.  0.
          5    1    4    4  502    0 -0.24632114337E+01  0.34384576772E+02 -0.74076613455E+01  0.35571477014E+02  0.47000000000E+01 0. -1.
         -5    1    4    4    0  502  0.48829137276E+02 -0.46412563795E+02 -0.17962354212E+02  0.69879516984E+02  0.47000000000E+01 0.  1.
          5    1    3    3  503    0 -0.17701246052E+02  0.24793057257E+02 -0.12929022733E+03  0.13291381675E+03  0.47000000000E+01 0. -1.
         -5    1    3    3    0  503 -0.28664679791E+02 -0.12765070235E+02  0.31384725848E+01  0.31883395298E+02  0.47000000000E+01 0.  1.
<mgrwt>
<rscale>  0 0.10510396E+03</rscale>
<asrwt>0</asrwt>
<pdfrwt beam="1">  1        2 0.32443843E-01 0.10603705E+03</pdfrwt>
<pdfrwt beam="2">  1       -2 0.91328030E-02 0.10603705E+03</pdfrwt>
<totfact> 0.11362155E+04</totfact>
</mgrwt>
</event>
<event>
 8    1  0.6836165E-004  0.9532268E+02  0.7546771E-02  0.1291291E+00
          1   -1    0    0  501    0  0.00000000000E+00  0.00000000000E+00  0.13016345851E+03  0.13016345851E+03  0.00000000000E+00 0. -1.
         -1   -1    0    0    0  501 -0.00000000000E+00 -0.00000000000E+00 -0.18662456935E+03  0.18662456935E+03  0.00000000000E+00 0.  1.
         23    2    1    2    0    0  0.24091158832E+02 -0.20880964754E+01 -0.15404362991E+03  0.18037409587E+03  0.90667692501E+02 0.  0.
         23    2    1    2    0    0 -0.24091158832E+02  0.20880964754E+01  0.97582519071E+02  0.13641393199E+03  0.92204494104E+02 0.  0.
          5    1    3    3  502    0  0.29075678327E+02  0.26894995873E+02 -0.23111012525E+02  0.46097123262E+02  0.47000000000E+01 0. -1.
         -5    1    3    3    0  502 -0.49845194946E+01 -0.28983092348E+02 -0.13093261739E+03  0.13427697261E+03  0.47000000000E+01 0.  1.
          5    1    4    4  503    0 -0.13063862043E+02 -0.29427319753E+02  0.97404353480E+02  0.10269532470E+03  0.47000000000E+01 0. -1.
         -5    1    4    4    0  503 -0.11027296789E+02  0.31515416228E+02  0.17816559093E+00  0.33718607289E+02  0.47000000000E+01 0.  1.
<mgrwt>
<rscale>  0 0.94949056E+02</rscale>
<asrwt>0</asrwt>
<pdfrwt beam="1">  1        1 0.20025147E-01 0.95322677E+02</pdfrwt>
<pdfrwt beam="2">  1       -1 0.28711472E-01 0.95322677E+02</pdfrwt>
<totfact> 0.26698864E+03</totfact>
</mgrwt>
</event>
<event>
 8    1  0.6836165E-004  0.1400029E+03  0.7546771E-02  0.1213589E+00
          1   -1    0    0  501    0  0.00000000000E+00  0.00000000000E+00  0.20225322983E+03  0.20225322983E+03  0.00000000000E+00 0. -1.
         -1   -1    0    0    0  501 -0.00000000000E+00 -0.00000000000E+00 -0.96440215767E+02  0.96440215767E+02  0.00000000000E+00 0.  1.
         23    2    1    2    0    0 -0.97690512860E+02  0.41405175005E+02  0.57043499708E+02  0.15117791486E+03  0.91339894153E+02 0.  0.
         23    2    1    2    0    0  0.97690512860E+02 -0.41405175005E+02  0.48769514358E+02  0.14751553074E+03  0.90136238315E+02 0.  0.
          5    1    3    3  502    0 -0.65137910072E+02  0.69660434065E+02  0.48051087403E+02  0.10689490354E+03  0.47000000000E+01 0. -1.
         -5    1    3    3    0  502 -0.32552602788E+02 -0.28255259059E+02  0.89924123053E+01  0.44283011323E+02  0.47000000000E+01 0.  1.
          5    1    4    4  503    0  0.22918392218E+02  0.46534187883E+01  0.54390123241E+02  0.59390929564E+02  0.47000000000E+01 0. -1.
         -5    1    4    4    0  503  0.74772120642E+02 -0.46058593793E+02 -0.56206088830E+01  0.88124601172E+02  0.47000000000E+01 0.  1.
<mgrwt>
<rscale>  0 0.13980688E+03</rscale>
<asrwt>0</asrwt>
<pdfrwt beam="1">  1        1 0.31115881E-01 0.14000286E+03</pdfrwt>
<pdfrwt beam="2">  1       -1 0.14836956E-01 0.14000286E+03</pdfrwt>
<totfact> 0.45408464E+03</totfact>
</mgrwt>
</event>
<event>
 8    1  0.6836165E-004  0.1066241E+03  0.7546771E-02  0.1267619E+00
          1   -1    0    0  501    0  0.00000000000E+00  0.00000000000E+00  0.86650195716E+02  0.86650195716E+02  0.00000000000E+00 0. -1.
         -1   -1    0    0    0  501 -0.00000000000E+00 -0.00000000000E+00 -0.13358440404E+03  0.13358440404E+03  0.00000000000E+00 0.  1.
         23    2    1    2    0    0 -0.52646755740E+02  0.92278778616E+01 -0.42819179161E+02  0.11490070077E+03  0.92259711220E+02 0.  0.
         23    2    1    2    0    0  0.52646755740E+02 -0.92278778616E+01 -0.41150291624E+01  0.10533389898E+03  0.90672279059E+02 0.  0.
          5    1    3    3  502    0  0.24580141595E+02  0.13715000175E+02 -0.62844304828E+01  0.29221031075E+02  0.47000000000E+01 0. -1.
         -5    1    4    4    0  503  0.28407995794E+02 -0.80507774730E+01 -0.47076831309E+02  0.55768694526E+02  0.47000000000E+01 0.  1.
          5    1    4    4  503    0  0.24238759946E+02 -0.11771003886E+01  0.42961802147E+02  0.49565204456E+02  0.47000000000E+01 0. -1.
         -5    1    3    3    0  502 -0.77226897334E+02 -0.44871223137E+01 -0.36534748678E+02  0.85679669698E+02  0.47000000000E+01 0.  1.
<mgrwt>
<rscale>  0 0.10627975E+03</rscale>
<asrwt>0</asrwt>
<pdfrwt beam="1">  1        1 0.13330799E-01 0.10662405E+03</pdfrwt>
<pdfrwt beam="2">  1       -1 0.20551447E-01 0.10662405E+03</pdfrwt>
<totfact> 0.77870628E+03</totfact>
</mgrwt>
</event>
<event>
 8    1  0.6836165E-004  0.1275616E+03  0.7546771E-02  0.1232310E+00
         -2   -1    0    0    0  501 -0.00000000000E+00  0.00000000000E+00  0.81343250686E+02  0.81343250686E+02  0.00000000000E+00 0. -1.
          2   -1    0    0  501    0  0.00000000000E+00 -0.00000000000E+00 -0.86811477218E+03  0.86811477218E+03  0.00000000000E+00 0.  1.
         23    2    1    2    0    0 -0.66477879200E+02  0.59504917770E+02  0.23477247573E+02  0.12970409822E+03  0.91169228800E+02 0.  0.
         23    2    1    2    0    0  0.66477879200E+02 -0.59504917770E+02 -0.81024876906E+03  0.81975392464E+03  0.86794501738E+02 0.  0.
          5    1    3    3  502    0 -0.15320813594E+02  0.61659337485E+02  0.40559304502E+02  0.75523164724E+02  0.47000000000E+01 0. -1.
         -5    1    4    4    0  503  0.80783209551E+02 -0.21751049114E+02 -0.55457609867E+03  0.56087055039E+03  0.47000000000E+01 0.  1.
          5    1    4    4  503    0 -0.14305330351E+02 -0.37753868657E+02 -0.25567267040E+03  0.25888337425E+03  0.47000000000E+01 0. -1.
         -5    1    3    3    0  502 -0.51157065606E+02 -0.21544197146E+01 -0.17082056928E+02  0.54180933497E+02  0.47000000000E+01 0.  1.
<mgrwt>
<rscale>  0 0.12678227E+03</rscale>
<asrwt>0</asrwt>
<pdfrwt beam="1">  1        2 0.13355611E+00 0.12756164E+03</pdfrwt>
<pdfrwt beam="2">  1       -2 0.12514347E-01 0.12756164E+03</pdfrwt>
<totfact> 0.14649183E+03</totfact>
</mgrwt>
</event>
<event>
 8    1  0.6836165E-004  0.9404771E+02  0.7546771E-02  0.1294157E+00
          1   -1    0    0  501    0  0.00000000000E+00  0.00000000000E+00  0.73898747019E+02  0.73898747019E+02  0.00000000000E+00 0. -1.
         -1   -1    0    0    0  501 -0.00000000000E+00 -0.00000000000E+00 -0.22041527552E+03  0.22041527552E+03  0.00000000000E+00 0.  1.
         23    2    1    2    0    0  0.17082789007E+02 -0.14363093212E+02 -0.17392480319E+03  0.19772407195E+03  0.91361104053E+02 0.  0.
         23    2    1    2    0    0 -0.17082789007E+02  0.14363093212E+02  0.27408274697E+02  0.96589950589E+02  0.89890404972E+02 0.  0.
          5    1    4    4  502    0 -0.10449946946E+02  0.51955850478E+02  0.22687525550E+02  0.57839654266E+02  0.47000000000E+01 0. -1.
         -5    1    3    3    0  503  0.11939998490E+02 -0.52821888025E+02 -0.11203987426E+03  0.12453007204E+03  0.47000000000E+01 0.  1.
          5    1    3    3  503    0  0.51427905170E+01  0.38458794813E+02 -0.61884928932E+02  0.73193999902E+02  0.47000000000E+01 0. -1.
         -5    1    4    4    0  502 -0.66328420605E+01 -0.37592757265E+02  0.47207491473E+01  0.38750296323E+02  0.47000000000E+01 0.  1.
<mgrwt>
<rscale>  0 0.93688650E+02</rscale>
<asrwt>0</asrwt>
<pdfrwt beam="1">  1        1 0.11369038E-01 0.94047708E+02</pdfrwt>
<pdfrwt beam="2">  1       -1 0.33910042E-01 0.94047708E+02</pdfrwt>
<totfact> 0.41673799E+03</totfact>
</mgrwt>
</event>
<event>
 8    1  0.6836165E-004  0.1078333E+03  0.7546771E-02  0.1264737E+00
         -1   -1    0    0    0  501 -0.00000000000E+00  0.00000000000E+00  0.24032204569E+03  0.24032204569E+03  0.00000000000E+00 0.  1.
          1   -1    0    0  501    0  0.00000000000E+00 -0.00000000000E+00 -0.63227515546E+02  0.63227515546E+02  0.00000000000E+00 0. -1.
         23    2    1    2    0    0 -0.50426468297E+02  0.26752235870E+02  0.14843107393E+02  0.10885005609E+03  0.91485004477E+02 0.  0.
         23    2    1    2    0    0  0.50426468297E+02 -0.26752235870E+02  0.16225142275E+03  0.19469950515E+03  0.91235203137E+02 0.  0.
          5    1    3    3  502    0 -0.17602700070E+02  0.56180504582E+02 -0.69153260656E+01  0.59464408510E+02  0.47000000000E+01 0. -1.
         -5    1    4    4    0  503  0.12775034318E+02 -0.35165262600E+02  0.14890703325E+03  0.15360726463E+03  0.47000000000E+01 0.  1.
          5    1    4    4  503    0  0.37651433980E+02  0.84130267302E+01  0.13344389495E+02  0.41092240514E+02  0.47000000000E+01 0. -1.
         -5    1    3    3    0  502 -0.32823768227E+02 -0.29428268712E+02  0.21758433459E+02  0.49385647577E+02  0.47000000000E+01 0.  1.
<mgrwt>
<rscale>  0 0.10778028E+03</rscale>
<asrwt>0</asrwt>
<pdfrwt beam="1">  1        1 0.97273102E-02 0.10783328E+03</pdfrwt>
<pdfrwt beam="2">  1       -1 0.36972622E-01 0.10783328E+03</pdfrwt>
<totfact> 0.44535298E+03</totfact>
</mgrwt>
</event>
<event>
 8    1  0.6836165E-004  0.1670574E+03  0.7546771E-02  0.1180997E+00
          1   -1    0    0  501    0  0.00000000000E+00  0.00000000000E+00  0.20482160741E+04  0.20482160741E+04  0.00000000000E+00 0. -1.
         -1   -1    0    0    0  501 -0.00000000000E+00 -0.00000000000E+00 -0.13630641855E+02  0.13630641855E+02  0.00000000000E+00 0.  1.
         23    2    1    2    0    0 -0.52472048508E+02  0.12956252262E+03  0.10550766845E+04  0.10681940805E+04  0.91170281540E+02 0.  0.
         23    2    1    2    0    0  0.52472048508E+02 -0.12956252262E+03  0.97950874773E+03  0.99365263547E+03  0.91479013736E+02 0.  0.
          5    1    3    3  502    0  0.67796906354E+01  0.82521979426E+02  0.71374993925E+03  0.71855195155E+03  0.47000000000E+01 0. -1.
         -5    1    4    4    0  503  0.66735245182E+01 -0.21045618135E+02  0.33918644539E+02  0.40743323619E+02  0.47000000000E+01 0. -1.
          5    1    4    4  503    0  0.45798523990E+02 -0.10851690448E+03  0.94559010319E+03  0.95290931185E+03  0.47000000000E+01 0.  1.
         -5    1    3    3    0  502 -0.59251739143E+02  0.47040543190E+02  0.34132674527E+03  0.34964212894E+03  0.47000000000E+01 0.  1.
<mgrwt>
<rscale>  0 0.16701516E+03</rscale>
<asrwt>0</asrwt>
<pdfrwt beam="1">  1        1 0.31510992E+00 0.16705739E+03</pdfrwt>
<pdfrwt beam="2">  1       -1 0.20970234E-02 0.16705739E+03</pdfrwt>
<totfact> 0.20130879E+03</totfact>
</mgrwt>
</event>
<event>
 8    1  0.6836165E-004  0.1156539E+03  0.7546771E-02  0.1250970E+00
         -1   -1    0    0    0  501 -0.00000000000E+00  0.00000000000E+00  0.61967118038E+02  0.61967118038E+02  0.00000000000E+00 0.  1.
          1   -1    0    0  501    0  0.00000000000E+00 -0.00000000000E+00 -0.70156120277E+03  0.70156120277E+03  0.00000000000E+00 0. -1.
         23    2    1    2    0    0 -0.52175970401E+02  0.47421939976E+02 -0.63766964544E+03  0.64785841867E+03  0.90148664144E+02 0.  0.
         23    2    1    2    0    0  0.52175970401E+02 -0.47421939976E+02 -0.19244392932E+01  0.11566990214E+03  0.91676881034E+02 0.  0.
          5    1    3    3  502    0 -0.99616264393E+01 -0.22904332411E+02 -0.74229804523E+02  0.78460157558E+02  0.47000000000E+01 0. -1.
         -5    1    3    3    0  502 -0.42214343962E+02  0.70326272387E+02 -0.56343984092E+03  0.56939826111E+03  0.47000000000E+01 0.  1.
          5    1    4    4  503    0  0.27391125356E+02 -0.33415199991E+02 -0.45811131659E+02  0.63147439557E+02  0.47000000000E+01 0. -1.
         -5    1    4    4    0  503  0.24784845045E+02 -0.14006739985E+02  0.43886692366E+02  0.52522462583E+02  0.47000000000E+01 0.  1.
<mgrwt>
<rscale>  0 0.11535080E+03</rscale>
<asrwt>0</asrwt>
<pdfrwt beam="1">  1        1 0.10793249E+00 0.11565389E+03</pdfrwt>
<pdfrwt beam="2">  1       -1 0.95334032E-02 0.11565389E+03</pdfrwt>
<totfact> 0.18168632E+03</totfact>
</mgrwt>
</event>
<event>
 7    1  0.6836165E-004  0.1649599E+03  0.7546771E-02  0.1194158E+00
         -1   -1    0    0    0  501 -0.00000000000E+00  0.00000000000E+00  0.61584058045E+03  0.61584058045E+03  0.00000000000E+00 0.  1.
          1   -1    0    0  501    0  0.00000000000E+00 -0.00000000000E+00 -0.43506181035E+02  0.43506181035E+02  0.00000000000E+00 0. -1.
         23    2    1    2    0    0  0.90831544668E+02 -0.18382421931E+02  0.40157791028E+03  0.42192404029E+03  0.90370320372E+02 0.  0.
          5    1    3    3  502    0  0.74795519570E+02  0.27040070259E+02  0.27849752172E+03  0.28966963035E+03  0.47000000000E+01 0. -1.
         -5    1    3    3    0  502  0.16036025099E+02 -0.45422492190E+02  0.12308038857E+03  0.13225440994E+03  0.47000000000E+01 0.  1.
          5    1    1    2  503    0 -0.77868672235E+02 -0.43144637960E+02  0.52634177937E+02  0.10352505295E+03  0.47000000000E+01 0. -1.
         -5    1    1    2    0  503 -0.12962872433E+02  0.61527059891E+02  0.11812231120E+03  0.13389766825E+03  0.47000000000E+01 0.  1.
<mgrwt>
<rscale>  0 0.15525733E+03</rscale>
<asrwt>0</asrwt>
<pdfrwt beam="1">  1        1 0.66932590E-02 0.16495990E+03</pdfrwt>
<pdfrwt beam="2">  1       -1 0.94744699E-01 0.16495990E+03</pdfrwt>
<totfact> 0.12447010E+03</totfact>
</mgrwt>
</event>
<event>
 8    1  0.6836165E-004  0.1482164E+03  0.7546771E-02  0.1203952E+00
         -1   -1    0    0    0  501 -0.00000000000E+00  0.00000000000E+00  0.29818094927E+02  0.29818094927E+02  0.00000000000E+00 0.  1.
          1   -1    0    0  501    0  0.00000000000E+00 -0.00000000000E+00 -0.94333082116E+03  0.94333082116E+03  0.00000000000E+00 0. -1.
         23    2    1    2    0    0  0.11383259277E+03 -0.26089595688E+02 -0.69986456553E+03  0.71538697098E+03  0.91266543595E+02 0.  0.
         23    2    1    2    0    0 -0.11383259277E+03  0.26089595688E+02 -0.21364816070E+03  0.25776194511E+03  0.84599985786E+02 0.  0.
          5    1    3    3  502    0  0.54363162171E+02  0.12409267993E+02 -0.13589068734E+03  0.14696160124E+03  0.47000000000E+01 0. -1.
         -5    1    4    4    0  503 -0.10858211963E+03 -0.76242251557E+01 -0.17341246732E+03  0.20479789875E+03  0.47000000000E+01 0.  1.
          5    1    4    4  503    0 -0.52504731373E+01  0.33713820844E+02 -0.40235693385E+02  0.52964046354E+02  0.47000000000E+01 0. -1.
         -5    1    3    3    0  502  0.59469430600E+02 -0.38498863682E+02 -0.56397387819E+03  0.56842536974E+03  0.47000000000E+01 0.  1.
<mgrwt>
<rscale>  0 0.14720376E+03</rscale>
<asrwt>0</asrwt>
<pdfrwt beam="1">  1        1 0.14512782E+00 0.14821642E+03</pdfrwt>
<pdfrwt beam="2">  1       -1 0.45873993E-02 0.14821642E+03</pdfrwt>
<totfact> 0.34809723E+03</totfact>
</mgrwt>
</event>
<event>
 8    1  0.6836165E-004  0.1197956E+03  0.7546771E-02  0.1245764E+00
          2   -1    0    0  501    0  0.00000000000E+00  0.00000000000E+00  0.22691674436E+03  0.22691674436E+03  0.00000000000E+00 0. -1.
         -2   -1    0    0    0  501 -0.00000000000E+00 -0.00000000000E+00 -0.62833602294E+02  0.62833602294E+02  0.00000000000E+00 0.  1.
         23    2    1    2    0    0  0.66614298114E+02 -0.96701509838E+01  0.55246134039E+02  0.13192091103E+03  0.99095988352E+02 0.  0.
         23    2    1    2    0    0 -0.66614298114E+02  0.96701509838E+01  0.10883700803E+03  0.15782943563E+03  0.92377810648E+02 0.  0.
          5    1    4    4  502    0 -0.68258861614E+02 -0.24856357655E+02  0.96393352375E+02  0.12079271123E+03  0.47000000000E+01 0. -1.
         -5    1    3    3    0  503  0.68260730536E+02 -0.36601190152E+02  0.89242693877E+01  0.78108303259E+02  0.47000000000E+01 0.  1.
          5    1    3    3  503    0 -0.16464324223E+01  0.26931039168E+02  0.46321864652E+02  0.53812607772E+02  0.47000000000E+01 0. -1.
         -5    1    4    4    0  502  0.16445635004E+01  0.34526508638E+02  0.12443655656E+02  0.37036724395E+02  0.47000000000E+01 0.  1.
<mgrwt>
<rscale>  0 0.11839759E+03</rscale>
<asrwt>0</asrwt>
<pdfrwt beam="1">  1        2 0.34910268E-01 0.11979562E+03</pdfrwt>
<pdfrwt beam="2">  1       -2 0.96667082E-02 0.11979562E+03</pdfrwt>
<totfact> 0.97164441E+03</totfact>
</mgrwt>
</event>
<event>
 8    1  0.6836165E-004  0.9421410E+02  0.7546771E-02  0.1293555E+00
          3   -1    0    0  501    0  0.00000000000E+00  0.00000000000E+00  0.69143611987E+02  0.69143611987E+02  0.00000000000E+00 0. -1.
         -3   -1    0    0    0  501 -0.00000000000E+00 -0.00000000000E+00 -0.12912678736E+03  0.12912678736E+03  0.00000000000E+00 0.  1.
         23    2    1    2    0    0 -0.11316007598E+02  0.91300872951E+01 -0.17296128677E+02  0.95788580593E+02  0.93085367179E+02 0.  0.
         23    2    1    2    0    0  0.11316007598E+02 -0.91300872951E+01 -0.42687046691E+02  0.10248181875E+03  0.92026782498E+02 0.  0.
          5    1    3    3  502    0  0.42819907878E+01  0.29456962613E+02  0.29537974416E+02  0.42197512061E+02  0.47000000000E+01 0. -1.
         -5    1    4    4    0  503 -0.29528130135E+02 -0.32142521533E+02 -0.96775378615E+01  0.44953274618E+02  0.47000000000E+01 0.  1.
          5    1    4    4  503    0  0.40844137733E+02  0.23012434238E+02 -0.33009508830E+02  0.57528544132E+02  0.47000000000E+01 0. -1.
         -5    1    3    3    0  502 -0.15597998386E+02 -0.20326875318E+02 -0.46834103094E+02  0.53591068532E+02  0.47000000000E+01 0.  1.
<mgrwt>
<rscale>  0 0.93951562E+02</rscale>
<asrwt>0</asrwt>
<pdfrwt beam="1">  1        3 0.10637479E-01 0.94214097E+02</pdfrwt>
<pdfrwt beam="2">  1       -3 0.19865659E-01 0.94214097E+02</pdfrwt>
<totfact> 0.32084841E+03</totfact>
</mgrwt>
</event>
<event>
 8    1  0.6836165E-004  0.9155612E+02  0.7546771E-02  0.1300526E+00
         -2   -1    0    0    0  501 -0.00000000000E+00  0.00000000000E+00  0.28100419839E+02  0.28100419839E+02  0.00000000000E+00 0. -1.
          2   -1    0    0  501    0  0.00000000000E+00 -0.00000000000E+00 -0.34842610774E+03  0.34842610774E+03  0.00000000000E+00 0.  1.
         23    2    1    2    0    0 -0.13430418063E+01 -0.35857938049E+01 -0.85298138091E+02  0.12513311295E+03  0.91476018254E+02 0.  0.
         23    2    1    2    0    0  0.13430418063E+01  0.35857938049E+01 -0.23502754981E+03  0.25139341463E+03  0.89140552340E+02 0.  0.
          5    1    3    3  502    0  0.25798216554E+02 -0.37959479819E+02 -0.32822394085E+02  0.56620399496E+02  0.47000000000E+01 0. -1.
         -5    1    4    4    0  503 -0.33923288761E+02  0.27636263129E+02 -0.14705491481E+03  0.15349850335E+03  0.47000000000E+01 0.  1.
          5    1    4    4  503    0  0.35266330567E+02 -0.24050469324E+02 -0.87972634999E+02  0.97894911282E+02  0.47000000000E+01 0. -1.
         -5    1    3    3    0  502 -0.27141258361E+02  0.34373686015E+02 -0.52475744005E+02  0.68512713452E+02  0.47000000000E+01 0.  1.
<mgrwt>
<rscale>  0 0.90967121E+02</rscale>
<asrwt>0</asrwt>
<pdfrwt beam="1">  1        2 0.53604014E-01 0.91556123E+02</pdfrwt>
<pdfrwt beam="2">  1       -2 0.43231418E-02 0.91556123E+02</pdfrwt>
<totfact> 0.20420605E+04</totfact>
</mgrwt>
</event>
<event>
 8    1  0.6836165E-004  0.9628000E+02  0.7546771E-02  0.1289296E+00
         -2   -1    0    0    0  501 -0.00000000000E+00  0.00000000000E+00  0.45788258296E+02  0.45788258296E+02  0.00000000000E+00 0.  1.
          2   -1    0    0  501    0  0.00000000000E+00 -0.00000000000E+00 -0.44188075116E+03  0.44188075116E+03  0.00000000000E+00 0. -1.
         23    2    1    2    0    0  0.31919624289E+02  0.13114971513E+00 -0.16380002238E+02  0.95940259590E+02  0.88979488209E+02 0.  0.
         23    2    1    2    0    0 -0.31919624289E+02 -0.13114971513E+00 -0.37971249062E+03  0.39172874986E+03  0.90834785841E+02 0.  0.
          5    1    4    4  502    0 -0.45956236890E+01 -0.43449951795E+02 -0.20192708198E+03  0.20665346478E+03  0.47000000000E+01 0. -1.
         -5    1    4    4    0  502 -0.27324000600E+02  0.43318802080E+02 -0.17778540864E+03  0.18507528508E+03  0.47000000000E+01 0.  1.
          5    1    3    3  503    0 -0.24147718646E+02 -0.21248715491E+02 -0.14832703969E+02  0.35731209507E+02  0.47000000000E+01 0. -1.
         -5    1    3    3    0  503  0.56067342935E+02  0.21379865206E+02 -0.15472982685E+01  0.60209050083E+02  0.47000000000E+01 0.  1.
<mgrwt>
<rscale>  0 0.95839897E+02</rscale>
<asrwt>0</asrwt>
<pdfrwt beam="1">  1        2 0.67981656E-01 0.96279998E+02</pdfrwt>
<pdfrwt beam="2">  1       -2 0.70443472E-02 0.96279998E+02</pdfrwt>
<totfact> 0.76935417E+03</totfact>
</mgrwt>
</event>
<event>
 8    1  0.6836165E-004  0.1093640E+03  0.7546771E-02  0.1262255E+00
         -4   -1    0    0    0  501 -0.00000000000E+00  0.00000000000E+00  0.10094457224E+03  0.10094457224E+03  0.00000000000E+00 0.  1.
          4   -1    0    0  501    0  0.00000000000E+00 -0.00000000000E+00 -0.11748832185E+03  0.11748832185E+03  0.00000000000E+00 0. -1.
         23    2    1    2    0    0 -0.60235372051E+02  0.44825153601E+00 -0.12363094072E+02  0.11006056995E+03  0.91279690987E+02 0.  0.
         23    2    1    2    0    0  0.60235372051E+02 -0.44825153601E+00 -0.41806555361E+01  0.10837232415E+03  0.89992120685E+02 0.  0.
          5    1    3    3  502    0 -0.25637225548E+02 -0.28231796616E+01 -0.51329537104E+02  0.57637219368E+02  0.47000000000E+01 0. -1.
         -5    1    4    4    0  503 -0.50201849132E+01 -0.33305860062E+02  0.57459344554E+01  0.34490409302E+02  0.47000000000E+01 0.  1.
          5    1    4    4  503    0  0.65255556964E+02  0.32857608526E+02 -0.99265899915E+01  0.73881914848E+02  0.47000000000E+01 0. -1.
         -5    1    3    3    0  502 -0.34598146502E+02  0.32714311976E+01  0.38966443032E+02  0.52423350580E+02  0.47000000000E+01 0.  1.
<mgrwt>
<rscale>  0 0.10909492E+03</rscale>
<asrwt>0</asrwt>
<pdfrwt beam="1">  1        4 0.18075127E-01 0.10936399E+03</pdfrwt>
<pdfrwt beam="2">  1       -4 0.15529934E-01 0.10936399E+03</pdfrwt>
<totfact> 0.15038783E+03</totfact>
</mgrwt>
</event>
<event>
 8    1  0.6836165E-004  0.1157922E+03  0.7546771E-02  0.1250535E+00
          2   -1    0    0  501    0  0.00000000000E+00  0.00000000000E+00  0.58210829578E+02  0.58210829578E+02  0.00000000000E+00 0. -1.
         -2   -1    0    0    0  501 -0.00000000000E+00 -0.00000000000E+00 -0.22986246516E+03  0.22986246516E+03  0.00000000000E+00 0.  1.
         23    2    1    2    0    0 -0.70582761072E+02  0.11050099973E+02 -0.75842332953E+02  0.13778268818E+03  0.90155303917E+02 0.  0.
         23    2    1    2    0    0  0.70582761072E+02 -0.11050099973E+02 -0.95809302628E+02  0.15029060656E+03  0.91125260380E+02 0.  0.
          5    1    4    4  502    0 -0.91396553216E+01 -0.29328970540E+02 -0.42102153578E+02  0.52329753948E+02  0.47000000000E+01 0. -1.
         -5    1    4    4    0  502  0.79722416394E+02  0.18278870567E+02 -0.53707149050E+02  0.97960852609E+02  0.47000000000E+01 0.  1.
          5    1    3    3  503    0 -0.45844403308E+02 -0.79628975526E+01  0.86770689567E+01  0.47565729026E+02  0.47000000000E+01 0. -1.
         -5    1    3    3    0  503 -0.24738357764E+02  0.19012997525E+02 -0.84519401910E+02  0.90216959153E+02  0.47000000000E+01 0.  1.
<mgrwt>
<rscale>  0 0.11560133E+03</rscale>
<asrwt>0</asrwt>
<pdfrwt beam="1">  1        2 0.89555124E-02 0.11579224E+03</pdfrwt>
<pdfrwt beam="2">  1       -2 0.35363456E-01 0.11579224E+03</pdfrwt>
<totfact> 0.52062971E+03</totfact>
</mgrwt>
</event>
<event>
 8    1  0.6836165E-004  0.1581654E+03  0.7546771E-02  0.1190787E+00
         -1   -1    0    0    0  501 -0.00000000000E+00  0.00000000000E+00  0.40102015058E+02  0.40102015058E+02  0.00000000000E+00 0.  1.
          1   -1    0    0  501    0  0.00000000000E+00 -0.00000000000E+00 -0.79842141113E+03  0.79842141113E+03  0.00000000000E+00 0. -1.
         23    2    1    2    0    0 -0.10963723621E+03  0.69603404475E+02 -0.57525533337E+03  0.59660286740E+03  0.90284690494E+02 0.  0.
         23    2    1    2    0    0  0.10963723621E+03 -0.69603404475E+02 -0.18306406270E+03  0.24192055879E+03  0.90267093869E+02 0.  0.
          5    1    3    3  502    0 -0.63229693980E+02  0.19612843234E+02 -0.44073264984E+03  0.44570171242E+03  0.47000000000E+01 0. -1.
         -5    1    4    4    0  503  0.73424363787E+02 -0.12405869336E+02 -0.42586984309E+02  0.85911489476E+02  0.47000000000E+01 0.  1.
          5    1    4    4  503    0  0.36212872421E+02 -0.57197535139E+02 -0.14047707839E+03  0.15600906932E+03  0.47000000000E+01 0. -1.
         -5    1    3    3    0  502 -0.46407542227E+02  0.49990561241E+02 -0.13452268353E+03  0.15090115498E+03  0.47000000000E+01 0.  1.
<mgrwt>
<rscale>  0 0.15816285E+03</rscale>
<asrwt>0</asrwt>
<pdfrwt beam="1">  1        1 0.12283407E+00 0.15816537E+03</pdfrwt>
<pdfrwt beam="2">  1       -1 0.61695404E-02 0.15816537E+03</pdfrwt>
<totfact> 0.29177194E+03</totfact>
</mgrwt>
</event>
<event>
 8    1  0.6836165E-004  0.1255942E+03  0.7546771E-02  0.1234561E+00
          1   -1    0    0  501    0  0.00000000000E+00  0.00000000000E+00  0.46869562705E+03  0.46869562705E+03  0.00000000000E+00 0. -1.
         -1   -1    0    0    0  501 -0.00000000000E+00 -0.00000000000E+00 -0.50781323166E+03  0.50781323166E+03  0.00000000000E+00 0.  1.
         23    2    1    2    0    0  0.73655715501E+02  0.39946097351E+02 -0.49149316426E+03  0.50702239080E+03  0.92115792010E+02 0.  0.
         23    2    1    2    0    0 -0.73655715501E+02 -0.39946097351E+02  0.45237555965E+03  0.46948646791E+03  0.93557690525E+02 0.  0.
          5    1    4    4  502    0 -0.33753449524E+02 -0.68345019216E+02  0.27077767360E+03  0.28134138609E+03  0.47000000000E+01 0. -1.
         -5    1    3    3    0  503  0.15632621225E+02  0.60054994841E+02 -0.27388111311E+03  0.28086284085E+03  0.47000000000E+01 0.  1.
          5    1    3    3  503    0  0.58023094276E+02 -0.20108897490E+02 -0.21761205115E+03  0.22615954995E+03  0.47000000000E+01 0. -1.
         -5    1    4    4    0  502 -0.39902265977E+02  0.28398921864E+02  0.18159788605E+03  0.18814508182E+03  0.47000000000E+01 0.  1.
<mgrwt>
<rscale>  0 0.12532572E+03</rscale>
<asrwt>0</asrwt>
<pdfrwt beam="1">  1        1 0.72107020E-01 0.12559417E+03</pdfrwt>
<pdfrwt beam="2">  1       -1 0.78125112E-01 0.12559417E+03</pdfrwt>
<totfact> 0.88803284E+01</totfact>
</mgrwt>
</event>
<event>
 8    1  0.6836165E-004  0.9732347E+02  0.7546771E-02  0.1286588E+00
          1   -1    0    0  501    0  0.00000000000E+00  0.00000000000E+00  0.22265441819E+03  0.22265441819E+03  0.00000000000E+00 0. -1.
         -1   -1    0    0    0  501 -0.00000000000E+00 -0.00000000000E+00 -0.44185605256E+02  0.44185605256E+02  0.00000000000E+00 0.  1.
         23    2    1    2    0    0 -0.60739775069E+01 -0.27713523904E+02  0.59762457001E+02  0.11333739562E+03  0.92026525357E+02 0.  0.
         23    2    1    2    0    0  0.60739775069E+01  0.27713523904E+02  0.11870635593E+03  0.15350262782E+03  0.93096322162E+02 0.  0.
          5    1    3    3  502    0 -0.24325390084E+02  0.20389573211E+02  0.51987566292E+02  0.61092195471E+02  0.47000000000E+01 0. -1.
         -5    1    3    3    0  502  0.18251412577E+02 -0.48103097115E+02  0.77748907089E+01  0.52245200150E+02  0.47000000000E+01 0.  1.
          5    1    4    4  503    0  0.98835971901E+01  0.53077450561E+02  0.11504604064E+03  0.12717146975E+03  0.47000000000E+01 0. -1.
         -5    1    4    4    0  503 -0.38096196832E+01 -0.25363926657E+02  0.36603152959E+01  0.26331158077E+02  0.47000000000E+01 0.  1.
<mgrwt>
<rscale>  0 0.97066749E+02</rscale>
<asrwt>0</asrwt>
<pdfrwt beam="1">  1        1 0.34254525E-01 0.97323470E+02</pdfrwt>
<pdfrwt beam="2">  1       -1 0.67977856E-02 0.97323470E+02</pdfrwt>
<totfact> 0.12873676E+04</totfact>
</mgrwt>
</event>
<event>
 8    1  0.6836165E-004  0.9162315E+02  0.7546771E-02  0.1299327E+00
          1   -1    0    0  501    0  0.00000000000E+00  0.00000000000E+00  0.68897255251E+03  0.68897255251E+03  0.00000000000E+00 0. -1.
         -1   -1    0    0    0  501 -0.00000000000E+00 -0.00000000000E+00 -0.15860454924E+02  0.15860454924E+02  0.00000000000E+00 0.  1.
         23    2    1    2    0    0  0.35222671028E+01 -0.90720747738E+01  0.16590125130E+03  0.18952051584E+03  0.91104839799E+02 0.  0.
         23    2    1    2    0    0 -0.35222671028E+01  0.90720747738E+01  0.50721084628E+03  0.51531249159E+03  0.90495372802E+02 0.  0.
          5    1    4    4  502    0  0.37985663751E+02 -0.16884066134E+02  0.23112018707E+03  0.23487573994E+03  0.47000000000E+01 0. -1.
         -5    1    4    4    0  502 -0.41507930854E+02  0.25956140908E+02  0.27609065921E+03  0.28043675165E+03  0.47000000000E+01 0.  1.
          5    1    3    3  503    0 -0.11331192475E+02 -0.30167842073E+02  0.15913995167E+03  0.16243801536E+03  0.47000000000E+01 0. -1.
         -5    1    3    3    0  503  0.14853459578E+02  0.21095767299E+02  0.67612996339E+01  0.27082500477E+02  0.47000000000E+01 0.  1.
<mgrwt>
<rscale>  0 0.91471269E+02</rscale>
<asrwt>0</asrwt>
<pdfrwt beam="1">  1        1 0.10599575E+00 0.91623145E+02</pdfrwt>
<pdfrwt beam="2">  1       -1 0.24400705E-02 0.91623145E+02</pdfrwt>
<totfact> 0.13630148E+04</totfact>
</mgrwt>
</event>
<event>
 8    1  0.6836165E-004  0.9236519E+02  0.7546771E-02  0.1297675E+00
          3   -1    0    0  501    0  0.00000000000E+00  0.00000000000E+00  0.26788562165E+02  0.26788562165E+02  0.00000000000E+00 0. -1.
         -3   -1    0    0    0  501 -0.00000000000E+00 -0.00000000000E+00 -0.38581578152E+03  0.38581578152E+03  0.00000000000E+00 0.  1.
         23    2    1    2    0    0  0.97974679258E+01 -0.42727770085E+01 -0.91027573129E+02  0.12913452234E+03  0.90969548686E+02 0.  0.
         23    2    1    2    0    0 -0.97974679258E+01  0.42727770085E+01 -0.26799964622E+03  0.28346982135E+03  0.91744657812E+02 0.  0.
          5    1    3    3  502    0  0.38180061971E+02 -0.16014008868E+02 -0.88669824715E+02  0.97972411561E+02  0.47000000000E+01 0. -1.
         -5    1    3    3    0  502 -0.28382594046E+02  0.11741231859E+02 -0.23577484136E+01  0.31162110774E+02  0.47000000000E+01 0.  1.
          5    1    4    4  503    0  0.30167510670E+02  0.31132471710E+02 -0.11428927067E+03  0.12232512778E+03  0.47000000000E+01 0. -1.
         -5    1    4    4    0  503 -0.39964978596E+02 -0.26859694701E+02 -0.15371037555E+03  0.16114469357E+03  0.47000000000E+01 0.  1.
<mgrwt>
<rscale>  0 0.92172126E+02</rscale>
<asrwt>0</asrwt>
<pdfrwt beam="1">  1        3 0.41213176E-02 0.92365195E+02</pdfrwt>
<pdfrwt beam="2">  1       -3 0.59356268E-01 0.92365195E+02</pdfrwt>
<totfact> 0.18619264E+03</totfact>
</mgrwt>
</event>
<event>
 8    1  0.6836165E-004  0.1031434E+03  0.7546771E-02  0.1274790E+00
         -2   -1    0    0    0  501 -0.00000000000E+00  0.00000000000E+00  0.64706933537E+03  0.64706933537E+03  0.00000000000E+00 0.  1.
          2   -1    0    0  501    0  0.00000000000E+00 -0.00000000000E+00 -0.16672578686E+02  0.16672578686E+02  0.00000000000E+00 0. -1.
         23    2    1    2    0    0  0.93700578742E+01  0.46927401467E+02  0.25870232338E+03  0.27850574233E+03  0.91370549949E+02 0.  0.
         23    2    1    2    0    0 -0.93700578742E+01 -0.46927401467E+02  0.37169443331E+03  0.38523617173E+03  0.89219825489E+02 0.  0.
          5    1    3    3  502    0 -0.26513229355E+02  0.17829791937E+02  0.26702647115E+02  0.41904345530E+02  0.47000000000E+01 0. -1.
         -5    1    3    3    0  502  0.35883287229E+02  0.29097609530E+02  0.23199967626E+03  0.23660139680E+03  0.47000000000E+01 0.  1.
          5    1    4    4  503    0 -0.43649865454E+02 -0.67233051830E+01  0.11860738416E+03  0.12665036582E+03  0.47000000000E+01 0. -1.
         -5    1    4    4    0  503  0.34279807580E+02 -0.40204096284E+02  0.25308704915E+03  0.25858580590E+03  0.47000000000E+01 0.  1.
<mgrwt>
<rscale>  0 0.10266498E+03</rscale>
<asrwt>0</asrwt>
<pdfrwt beam="1">  1        2 0.25650126E-02 0.10314338E+03</pdfrwt>
<pdfrwt beam="2">  1       -2 0.99549109E-01 0.10314338E+03</pdfrwt>
<totfact> 0.31304692E+03</totfact>
</mgrwt>
</event>
<event>
 8    1  0.6836165E-004  0.1086972E+03  0.7546771E-02  0.1265322E+00
          2   -1    0    0  501    0  0.00000000000E+00  0.00000000000E+00  0.10662016268E+04  0.10662016268E+04  0.00000000000E+00 0. -1.
         -2   -1    0    0    0  501 -0.00000000000E+00 -0.00000000000E+00 -0.11805582492E+02  0.11805582492E+02  0.00000000000E+00 0.  1.
         23    2    1    2    0    0  0.20524256514E+02 -0.43390470625E+02  0.34399887728E+03  0.35934232853E+03  0.92128733083E+02 0.  0.
         23    2    1    2    0    0 -0.20524256514E+02  0.43390470625E+02  0.71039716707E+03  0.71866488080E+03  0.97524857688E+02 0.  0.
          5    1    3    3  502    0 -0.98227844063E+01 -0.64240905238E+02  0.24802089719E+03  0.25643680790E+03  0.47000000000E+01 0. -1.
         -5    1    4    4    0  503  0.25980061209E+02 -0.17190740613E+02  0.24542307885E+03  0.24743698748E+03  0.47000000000E+01 0.  1.
          5    1    4    4  503    0 -0.46504317723E+02  0.60581211239E+02  0.46497408822E+03  0.47122789332E+03  0.47000000000E+01 0. -1.
         -5    1    3    3    0  502  0.30347040920E+02  0.20850434612E+02  0.95977980082E+02  0.10290552063E+03  0.47000000000E+01 0.  1.
<mgrwt>
<rscale>  0 0.10747311E+03</rscale>
<asrwt>0</asrwt>
<pdfrwt beam="1">  1        2 0.16403094E+00 0.10869718E+03</pdfrwt>
<pdfrwt beam="2">  1       -2 0.18162443E-02 0.10869718E+03</pdfrwt>
<totfact> 0.20026688E+04</totfact>
</mgrwt>
</event>
<event>
 8    1  0.6836165E-004  0.9442179E+02  0.7546771E-02  0.1293022E+00
         -1   -1    0    0    0  501 -0.00000000000E+00  0.00000000000E+00  0.78806586821E+02  0.78806586821E+02  0.00000000000E+00 0.  1.
          1   -1    0    0  501    0  0.00000000000E+00 -0.00000000000E+00 -0.11466043079E+03  0.11466043079E+03  0.00000000000E+00 0. -1.
         23    2    1    2    0    0 -0.21404758659E+02  0.12440311115E+02 -0.31167068901E+01  0.93531061385E+02  0.90141114638E+02 0.  0.
         23    2    1    2    0    0  0.21404758659E+02 -0.12440311115E+02 -0.32737137078E+02  0.99935956225E+02  0.91118330586E+02 0.  0.
          5    1    3    3  502    0  0.18026914172E+02 -0.29709429635E+02 -0.58733005800E+01  0.35555667671E+02  0.47000000000E+01 0. -1.
         -5    1    4    4    0  503  0.30132615711E+02  0.30223481247E+02  0.35141193205E+01  0.43079837312E+02  0.47000000000E+01 0.  1.
          5    1    4    4  503    0 -0.87278570521E+01 -0.42663792361E+02 -0.36251256399E+02  0.56856118913E+02  0.47000000000E+01 0. -1.
         -5    1    3    3    0  502 -0.39431672831E+02  0.42149740750E+02  0.27565936900E+01  0.57975393714E+02  0.47000000000E+01 0.  1.
<mgrwt>
<rscale>  0 0.94185238E+02</rscale>
<asrwt>0</asrwt>
<pdfrwt beam="1">  1        1 0.17640066E-01 0.94421794E+02</pdfrwt>
<pdfrwt beam="2">  1       -1 0.12124090E-01 0.94421794E+02</pdfrwt>
<totfact> 0.12267808E+04</totfact>
</mgrwt>
</event>
<event>
 8    1  0.6836165E-004  0.1050496E+03  0.7546771E-02  0.1280065E+00
          1   -1    0    0  501    0  0.00000000000E+00  0.00000000000E+00  0.41103957726E+03  0.41103957726E+03  0.00000000000E+00 0. -1.
         -1   -1    0    0    0  501 -0.00000000000E+00 -0.00000000000E+00 -0.26050941651E+02  0.26050941651E+02  0.00000000000E+00 0.  1.
         23    2    1    2    0    0  0.18518489495E+02 -0.40499810373E+02  0.94579994254E+02  0.12826596319E+03  0.74321012542E+02 0.  0.
         23    2    1    2    0    0 -0.18518489495E+02  0.40499810373E+02  0.29040864135E+03  0.30882455572E+03  0.95143355796E+02 0.  0.
          5    1    4    4  502    0 -0.55340105102E+02  0.37420516076E+02  0.16735521034E+03  0.18025725695E+03  0.47000000000E+01 0. -1.
         -5    1    3    3    0  503  0.36226045808E+02  0.56710412057E+01  0.40736297938E+02  0.55009299877E+02  0.47000000000E+01 0.  1.
          5    1    3    3  503    0 -0.17707556313E+02 -0.46170851579E+02  0.53843696316E+02  0.73256663309E+02  0.47000000000E+01 0. -1.
         -5    1    4    4    0  502  0.36821615607E+02  0.30792942976E+01  0.12305343102E+03  0.12856729878E+03  0.47000000000E+01 0.  1.
<mgrwt>
<rscale>  0 0.10011005E+03</rscale>
<asrwt>0</asrwt>
<pdfrwt beam="1">  1        1 0.63236853E-01 0.10504964E+03</pdfrwt>
<pdfrwt beam="2">  1       -1 0.40078375E-02 0.10504964E+03</pdfrwt>
<totfact> 0.13257636E+04</totfact>
</mgrwt>
</event>
<event>
 8    1  0.1158594E-003  0.1630625E+03  0.7546771E-02  0.1186607E+00
          1   -1    0    0  501    0  0.00000000000E+00  0.00000000000E+00  0.24690072825E+03  0.24690072825E+03  0.00000000000E+00 0. -1.
         -1   -1    0    0    0  501 -0.00000000000E+00 -0.00000000000E+00 -0.22972742893E+03  0.22972742893E+03  0.00000000000E+00 0.  1.
         23    2    1    2    0    0  0.12373696511E+03  0.41252565901E+02  0.18441041559E+03  0.24305242813E+03  0.89747817317E+02 0.  0.
         23    2    1    2    0    0 -0.12373696511E+03 -0.41252565901E+02 -0.16723711626E+03  0.23357572905E+03  0.97860908506E+02 0.  0.
          5    1    3    3  502    0  0.11127393995E+03  0.61482864339E+02  0.12264948171E+03  0.17671167953E+03  0.47000000000E+01 0. -1.
         -5    1    4    4    0  503 -0.10433367063E+03 -0.59876807603E+02 -0.16749685032E+03  0.20627174257E+03  0.47000000000E+01 0.  1.
          5    1    4    4  503    0 -0.19403294483E+02  0.18624241702E+02  0.25973405223E+00  0.27303986477E+02  0.47000000000E+01 0. -1.
         -5    1    3    3    0  502  0.12463025167E+02 -0.20230298438E+02  0.61760933879E+02  0.66340748600E+02  0.47000000000E+01 0.  1.
<mgrwt>
<rscale>  0 0.16186536E+03</rscale>
<asrwt>0</asrwt>
<pdfrwt beam="1">  1        1 0.37984728E-01 0.16306247E+03</pdfrwt>
<pdfrwt beam="2">  1       -1 0.35342681E-01 0.16306247E+03</pdfrwt>
<totfact> 0.86058853E+02</totfact>
</mgrwt>
</event>
<event>
 8    1  0.6836165E-004  0.1163696E+03  0.7546771E-02  0.1251700E+00
          2   -1    0    0  501    0  0.00000000000E+00  0.00000000000E+00  0.49638095860E+03  0.49638095860E+03  0.00000000000E+00 0. -1.
         -2   -1    0    0    0  501 -0.00000000000E+00 -0.00000000000E+00 -0.30351701593E+02  0.30351701593E+02  0.00000000000E+00 0.  1.
         23    2    1    2    0    0 -0.28979518408E+02  0.64899021147E+02  0.13797365185E+03  0.18049548227E+03  0.92142254602E+02 0.  0.
         23    2    1    2    0    0  0.28979518408E+02 -0.64899021147E+02  0.32805560515E+03  0.34623717792E+03  0.84899987429E+02 0.  0.
          5    1    3    3  502    0 -0.21824135498E+02  0.26871436643E+02  0.13712682673E+03  0.14150697370E+03  0.47000000000E+01 0. -1.
         -5    1    3    3    0  502 -0.71553829101E+01  0.38027584504E+02  0.84682512098E+00  0.38988508571E+02  0.47000000000E+01 0.  1.
          5    1    4    4  503    0 -0.10588861936E+02 -0.66825189348E+02  0.24306340840E+03  0.25234825229E+03  0.47000000000E+01 0. -1.
         -5    1    4    4    0  503  0.39568380344E+02  0.19261682006E+01  0.84992196753E+02  0.93888925630E+02  0.47000000000E+01 0.  1.
<mgrwt>
<rscale>  0 0.11493167E+03</rscale>
<asrwt>0</asrwt>
<pdfrwt beam="1">  1        2 0.76366296E-01 0.11636963E+03</pdfrwt>
<pdfrwt beam="2">  1       -2 0.46694929E-02 0.11636963E+03</pdfrwt>
<totfact> 0.12776035E+04</totfact>
</mgrwt>
</event>
<event>
 8    1  0.6836165E-004  0.9753819E+02  0.7546771E-02  0.1286045E+00
          1   -1    0    0  501    0  0.00000000000E+00  0.00000000000E+00  0.39734528296E+02  0.39734528296E+02  0.00000000000E+00 0. -1.
         -1   -1    0    0    0  501 -0.00000000000E+00 -0.00000000000E+00 -0.24500599608E+03  0.24500599608E+03  0.00000000000E+00 0.  1.
         23    2    1    2    0    0  0.69353454848E+01  0.34155748481E+02 -0.12750533922E+03  0.15999570716E+03  0.90145996078E+02 0.  0.
         23    2    1    2    0    0 -0.69353454848E+01 -0.34155748481E+02 -0.77766128558E+02  0.12474481721E+03  0.91098762334E+02 0.  0.
          5    1    3    3  502    0 -0.24638461881E+02  0.48881094402E+02 -0.47576338001E+02  0.72677459583E+02  0.47000000000E+01 0. -1.
         -5    1    3    3    0  502  0.31573807366E+02 -0.14725345921E+02 -0.79929001223E+02  0.87318247581E+02  0.47000000000E+01 0.  1.
          5    1    4    4  503    0 -0.47542802927E+02 -0.24848460461E+02 -0.31833900205E+02  0.62555985323E+02  0.47000000000E+01 0. -1.
         -5    1    4    4    0  503  0.40607457442E+02 -0.93072880205E+01 -0.45932228352E+02  0.62188831888E+02  0.47000000000E+01 0.  1.
<mgrwt>
<rscale>  0 0.97315110E+02</rscale>
<asrwt>0</asrwt>
<pdfrwt beam="1">  1        1 0.61130044E-02 0.97538191E+02</pdfrwt>
<pdfrwt beam="2">  1       -1 0.37693230E-01 0.97538191E+02</pdfrwt>
<totfact> 0.79338380E+03</totfact>
</mgrwt>
</event>
<event>
 8    1  0.6836165E-004  0.9501857E+02  0.7546771E-02  0.1295053E+00
          1   -1    0    0  501    0  0.00000000000E+00  0.00000000000E+00  0.11372334502E+03  0.11372334502E+03  0.00000000000E+00 0. -1.
         -1   -1    0    0    0  501 -0.00000000000E+00 -0.00000000000E+00 -0.15167243187E+03  0.15167243187E+03  0.00000000000E+00 0.  1.
         23    2    1    2    0    0 -0.20873080442E+02  0.11538378541E+02 -0.11363001236E+03  0.14392095973E+03  0.85044948551E+02 0.  0.
         23    2    1    2    0    0  0.20873080442E+02 -0.11538378541E+02  0.75680925516E+02  0.12147481715E+03  0.91976676658E+02 0.  0.
          5    1    3    3  502    0  0.27010105099E+02  0.21949540386E+02 -0.27068562146E+02  0.44341009881E+02  0.47000000000E+01 0. -1.
         -5    1    3    3    0  502 -0.47883185541E+02 -0.10411161845E+02 -0.86561450219E+02  0.99579949852E+02  0.47000000000E+01 0.  1.
          5    1    4    4  503    0  0.21453351903E+02  0.10659327085E+02  0.90917349794E+02  0.94137782295E+02  0.47000000000E+01 0. -1.
         -5    1    4    4    0  503 -0.58027146139E+00 -0.22197705627E+02 -0.15236424278E+02  0.27337034858E+02  0.47000000000E+01 0.  1.
<mgrwt>
<rscale>  0 0.93299298E+02</rscale>
<asrwt>0</asrwt>
<pdfrwt beam="1">  1        1 0.17495899E-01 0.95018570E+02</pdfrwt>
<pdfrwt beam="2">  1       -1 0.23334220E-01 0.95018570E+02</pdfrwt>
<totfact> 0.44425162E+03</totfact>
</mgrwt>
</event>
<event>
 8    1  0.6836165E-004  0.1231430E+03  0.7546771E-02  0.1238111E+00
         -2   -1    0    0    0  501 -0.00000000000E+00  0.00000000000E+00  0.13655934415E+03  0.13655934415E+03  0.00000000000E+00 0.  1.
          2   -1    0    0  501    0  0.00000000000E+00 -0.00000000000E+00 -0.23697094857E+03  0.23697094857E+03  0.00000000000E+00 0. -1.
         23    2    1    2    0    0  0.78217185920E+02 -0.27312027660E+02  0.86101909326E+02  0.15003197291E+03  0.90731356646E+02 0.  0.
         23    2    1    2    0    0 -0.78217185920E+02  0.27312027660E+02 -0.18651351375E+03  0.22349831981E+03  0.91106163998E+02 0.  0.
          5    1    3    3  502    0  0.24109656100E+02  0.28887010580E+02  0.64903361631E+01  0.38470109969E+02  0.47000000000E+01 0. -1.
         -5    1    4    4    0  503 -0.39609214170E+02 -0.94297747839E+01 -0.14693617853E+02  0.43540818839E+02  0.47000000000E+01 0.  1.
          5    1    4    4  503    0 -0.38607971750E+02  0.36741802444E+02 -0.17181989590E+03  0.17995750097E+03  0.47000000000E+01 0. -1.
         -5    1    3    3    0  502  0.54107529820E+02 -0.56199038241E+02  0.79611573163E+02  0.11156186295E+03  0.47000000000E+01 0.  1.
<mgrwt>
<rscale>  0 0.12307372E+03</rscale>
<asrwt>0</asrwt>
<pdfrwt beam="1">  1        2 0.36457069E-01 0.12314304E+03</pdfrwt>
<pdfrwt beam="2">  1       -2 0.21009130E-01 0.12314304E+03</pdfrwt>
<totfact> 0.26348498E+03</totfact>
</mgrwt>
</event>
<event>
 8    1  0.6836165E-004  0.1209817E+03  0.7546771E-02  0.1248658E+00
          2   -1    0    0  501    0  0.00000000000E+00  0.00000000000E+00  0.92859900139E+02  0.92859900139E+02  0.00000000000E+00 0. -1.
         -2   -1    0    0    0  501 -0.00000000000E+00 -0.00000000000E+00 -0.16823521379E+03  0.16823521379E+03  0.00000000000E+00 0.  1.
         23    2    1    2    0    0  0.79795302018E+02  0.60996859085E+01 -0.95912938732E+02  0.15438863928E+03  0.90730720988E+02 0.  0.
         23    2    1    2    0    0 -0.79795302018E+02 -0.60996859085E+01  0.20537625078E+02  0.10670647465E+03  0.67527633573E+02 0.  0.
          5    1    3    3  502    0 -0.19629061217E+02  0.50090416042E+01 -0.22947800084E+02  0.30969050208E+02  0.47000000000E+01 0. -1.
         -5    1    3    3    0  502  0.99424363235E+02  0.10906443043E+01 -0.72965138647E+02  0.12341958907E+03  0.47000000000E+01 0.  1.
          5    1    4    4  503    0 -0.23102022537E+02  0.29220197638E+02  0.41789957264E+01  0.37776677998E+02  0.47000000000E+01 0.  1.
         -5    1    4    4    0  503 -0.56693279481E+02 -0.35319883547E+02  0.16358629352E+02  0.68929796651E+02  0.47000000000E+01 0. -1.
<mgrwt>
<rscale>  0 0.11669121E+03</rscale>
<asrwt>0</asrwt>
<pdfrwt beam="1">  1        2 0.14286138E-01 0.12098165E+03</pdfrwt>
<pdfrwt beam="2">  1       -2 0.25882341E-01 0.12098165E+03</pdfrwt>
<totfact> 0.52115630E+03</totfact>
</mgrwt>
</event>
<event>
 8    1  0.6836165E-004  0.9603991E+02  0.7546771E-02  0.1290051E+00
         -1   -1    0    0    0  501 -0.00000000000E+00  0.00000000000E+00  0.23663623963E+03  0.23663623963E+03  0.00000000000E+00 0.  1.
          1   -1    0    0  501    0  0.00000000000E+00 -0.00000000000E+00 -0.50141987878E+02  0.50141987878E+02  0.00000000000E+00 0. -1.
         23    2    1    2    0    0 -0.19102955886E+02 -0.20017310202E+02  0.16266874581E+03  0.18782713431E+03  0.89734585802E+02 0.  0.
         23    2    1    2    0    0  0.19102955886E+02  0.20017310202E+02  0.23825505941E+02  0.98951093195E+02  0.91967649093E+02 0.  0.
          5    1    4    4  502    0  0.42129985575E+02 -0.18663344389E+02  0.26941167418E+02  0.53583323993E+02  0.47000000000E+01 0. -1.
         -5    1    4    4    0  502 -0.23027029689E+02  0.38680654591E+02 -0.31156614766E+01  0.45367769201E+02  0.47000000000E+01 0.  1.
          5    1    3    3  503    0  0.10875046196E+02 -0.48097114053E+02  0.64642365975E+02  0.81439084529E+02  0.47000000000E+01 0. -1.
         -5    1    3    3    0  503 -0.29978002082E+02  0.28079803851E+02  0.98026379835E+02  0.10638804978E+03  0.47000000000E+01 0.  1.
<mgrwt>
<rscale>  0 0.95501352E+02</rscale>
<asrwt>0</asrwt>
<pdfrwt beam="1">  1        1 0.77141522E-02 0.96039909E+02</pdfrwt>
<pdfrwt beam="2">  1       -1 0.36405574E-01 0.96039909E+02</pdfrwt>
<totfact> 0.61624572E+03</totfact>
</mgrwt>
</event>
<event>
 8    1  0.6836165E-004  0.1001346E+03  0.7546771E-02  0.1280535E+00
          2   -1    0    0  501    0  0.00000000000E+00  0.00000000000E+00  0.92659490540E+03  0.92659490540E+03  0.00000000000E+00 0. -1.
         -2   -1    0    0    0  501 -0.00000000000E+00 -0.00000000000E+00 -0.12037116851E+02  0.12037116851E+02  0.00000000000E+00 0.  1.
         23    2    1    2    0    0  0.54965432479E+01  0.42321649963E+02  0.29970108044E+03  0.31567479196E+03  0.89490237572E+02 0.  0.
         23    2    1    2    0    0 -0.54965432479E+01 -0.42321649963E+02  0.61485670811E+03  0.62295723029E+03  0.90584795731E+02 0.  0.
          5    1    4    4  502    0 -0.27532785640E+02 -0.63400287578E+02  0.42562053989E+03  0.43122219878E+03  0.47000000000E+01 0. -1.
         -5    1    3    3    0  503  0.26576024109E+02 -0.19045676531E+02  0.80212013852E+02  0.86747219080E+02  0.47000000000E+01 0.  1.
          5    1    3    3  503    0 -0.21079480861E+02  0.61367326494E+02  0.21948906659E+03  0.22892757288E+03  0.47000000000E+01 0. -1.
         -5    1    4    4    0  502  0.22036242392E+02  0.21078637615E+02  0.18923616822E+03  0.19173503150E+03  0.47000000000E+01 0.  1.
<mgrwt>
<rscale>  0 0.99886416E+02</rscale>
<asrwt>0</asrwt>
<pdfrwt beam="1">  1        2 0.14255301E+00 0.10013461E+03</pdfrwt>
<pdfrwt beam="2">  1       -2 0.18518649E-02 0.10013461E+03</pdfrwt>
<totfact> 0.23395734E+04</totfact>
</mgrwt>
</event>
<event>
 8    1  0.6836165E-004  0.1375866E+03  0.7546771E-02  0.1219513E+00
         -1   -1    0    0    0  501 -0.00000000000E+00  0.00000000000E+00  0.13485357674E+03  0.13485357674E+03  0.00000000000E+00 0.  1.
          1   -1    0    0  501    0  0.00000000000E+00 -0.00000000000E+00 -0.23426894028E+03  0.23426894028E+03  0.00000000000E+00 0. -1.
         23    2    1    2    0    0  0.91277482786E+02  0.18409743429E+02  0.72950329932E+02  0.14857770356E+03  0.89905983345E+02 0.  0.
         23    2    1    2    0    0 -0.91277482786E+02 -0.18409743429E+02 -0.17236569347E+03  0.22054481345E+03  0.10128960923E+03 0.  0.
          5    1    4    4  502    0 -0.62871069334E+02 -0.47857495227E+02 -0.15836687134E+03  0.17704594643E+03  0.47000000000E+01 0. -1.
         -5    1    4    4    0  502 -0.28406413452E+02  0.29447751798E+02 -0.13998822131E+02  0.43498867022E+02  0.47000000000E+01 0.  1.
          5    1    3    3  503    0  0.14518980109E+02  0.43185043145E+02  0.11933249746E+02  0.47331186171E+02  0.47000000000E+01 0. -1.
         -5    1    3    3    0  503  0.76758502677E+02 -0.24775299715E+02  0.61017080186E+02  0.10124651739E+03  0.47000000000E+01 0.  1.
<mgrwt>
<rscale>  0 0.13550198E+03</rscale>
<asrwt>0</asrwt>
<pdfrwt beam="1">  1        1 0.36041375E-01 0.13758664E+03</pdfrwt>
<pdfrwt beam="2">  1       -1 0.20746704E-01 0.13758664E+03</pdfrwt>
<totfact> 0.22200602E+03</totfact>
</mgrwt>
</event>
<event>
 8    1  0.6836165E-004  0.1954089E+03  0.7546771E-02  0.1153770E+00
         -1   -1    0    0    0  501 -0.00000000000E+00  0.00000000000E+00  0.49776053584E+02  0.49776053584E+02  0.00000000000E+00 0.  1.
          1   -1    0    0  501    0  0.00000000000E+00 -0.00000000000E+00 -0.86332677233E+03  0.86332677233E+03  0.00000000000E+00 0. -1.
         23    2    1    2    0    0 -0.12079680336E+03  0.12424058468E+03 -0.56098861183E+03  0.59404785652E+03  0.90316347634E+02 0.  0.
         23    2    1    2    0    0  0.12079680336E+03 -0.12424058468E+03 -0.25256210692E+03  0.31905496940E+03  0.89335687503E+02 0.  0.
          5    1    3    3  502    0 -0.12405519483E+03  0.87213905999E+02 -0.49960976958E+03  0.52213788277E+03  0.47000000000E+01 0. -1.
         -5    1    4    4    0  503  0.11395454337E+03 -0.60855967129E+02 -0.18837582681E+03  0.22846581542E+03  0.47000000000E+01 0.  1.
          5    1    4    4  503    0  0.68422599915E+01 -0.63384617547E+02 -0.64186280108E+02  0.90589153973E+02  0.47000000000E+01 0. -1.
         -5    1    3    3    0  502  0.32583914657E+01  0.37026678677E+02 -0.61378842246E+02  0.71909973746E+02  0.47000000000E+01 0.  1.
<mgrwt>
<rscale>  0 0.19529596E+03</rscale>
<asrwt>0</asrwt>
<pdfrwt beam="1">  1        1 0.13281950E+00 0.19540889E+03</pdfrwt>
<pdfrwt beam="2">  1       -1 0.76578548E-02 0.19540889E+03</pdfrwt>
<totfact> 0.18741808E+03</totfact>
</mgrwt>
</event>
<event>
 8    1  0.6836165E-004  0.1066977E+03  0.7546771E-02  0.1270261E+00
          2   -1    0    0  501    0  0.00000000000E+00  0.00000000000E+00  0.59504420993E+03  0.59504420993E+03  0.00000000000E+00 0. -1.
         -2   -1    0    0    0  501 -0.00000000000E+00 -0.00000000000E+00 -0.17949227271E+02  0.17949227271E+02  0.00000000000E+00 0.  1.
         23    2    1    2    0    0  0.95589549494E+01  0.38122644538E+02  0.31173775815E+03  0.32949175868E+03  0.99195158855E+02 0.  0.
         23    2    1    2    0    0 -0.95589549494E+01 -0.38122644538E+02  0.26535722451E+03  0.28350167851E+03  0.91728051731E+02 0.  0.
          5    1    3    3  502    0 -0.27089017928E+02 -0.60765941076E+01  0.21548096487E+03  0.21731285307E+03  0.47000000000E+01 0. -1.
         -5    1    4    4    0  503  0.23074813546E+02  0.18347292065E+02  0.12712786126E+03  0.13058580801E+03  0.47000000000E+01 0.  1.
          5    1    4    4  503    0 -0.32633768495E+02 -0.56469936603E+02  0.13822936325E+03  0.15291587050E+03  0.47000000000E+01 0. -1.
         -5    1    3    3    0  502  0.36647972877E+02  0.44199238645E+02  0.96256793276E+02  0.11217890561E+03  0.47000000000E+01 0.  1.
<mgrwt>
<rscale>  0 0.10492808E+03</rscale>
<asrwt>0</asrwt>
<pdfrwt beam="1">  1        2 0.91545248E-01 0.10669765E+03</pdfrwt>
<pdfrwt beam="2">  1       -2 0.27614200E-02 0.10669765E+03</pdfrwt>
<totfact> 0.22489011E+04</totfact>
</mgrwt>
</event>
<event>
 8    1  0.6836165E-004  0.9810091E+02  0.7546771E-02  0.1284496E+00
         -1   -1    0    0    0  501 -0.00000000000E+00  0.00000000000E+00  0.28923326617E+03  0.28923326617E+03  0.00000000000E+00 0.  1.
          1   -1    0    0  501    0  0.00000000000E+00 -0.00000000000E+00 -0.33769243120E+02  0.33769243120E+02  0.00000000000E+00 0. -1.
         23    2    1    2    0    0 -0.32550216134E+02 -0.23459011191E+02  0.14931843452E+03  0.17866108780E+03  0.89520654770E+02 0.  0.
         23    2    1    2    0    0  0.32550216134E+02  0.23459011191E+02  0.10614558853E+03  0.14434142149E+03  0.89206043610E+02 0.  0.
          5    1    4    4  502    0  0.25988108816E+02 -0.27981704422E+02  0.19211474361E+02  0.43006142926E+02  0.47000000000E+01 0. -1.
         -5    1    3    3    0  503 -0.52157469307E+02 -0.41977635615E+02  0.12573685317E+03  0.14252848747E+03  0.47000000000E+01 0.  1.
          5    1    3    3  503    0  0.19607253173E+02  0.18518624424E+02  0.23581581354E+02  0.36132600331E+02  0.47000000000E+01 0. -1.
         -5    1    4    4    0  502  0.65621073176E+01  0.51440715613E+02  0.86934114166E+02  0.10133527856E+03  0.47000000000E+01 0.  1.
<mgrwt>
<rscale>  0 0.98029083E+02</rscale>
<asrwt>0</asrwt>
<pdfrwt beam="1">  1        1 0.51952684E-02 0.98100914E+02</pdfrwt>
<pdfrwt beam="2">  1       -1 0.44497424E-01 0.98100914E+02</pdfrwt>
<totfact> 0.73986506E+03</totfact>
</mgrwt>
</event>
<event>
 8    1  0.6836165E-004  0.9719131E+02  0.7546771E-02  0.1286345E+00
         -1   -1    0    0    0  501 -0.00000000000E+00  0.00000000000E+00  0.11439347028E+03  0.11439347028E+03  0.00000000000E+00 0.  1.
          1   -1    0    0  501    0  0.00000000000E+00 -0.00000000000E+00 -0.12186791712E+03  0.12186791712E+03  0.00000000000E+00 0. -1.
         23    2    1    2    0    0  0.74686481597E+01  0.31951235178E+02 -0.70851456230E+02  0.12023209435E+03  0.91428472197E+02 0.  0.
         23    2    1    2    0    0 -0.74686481597E+01 -0.31951235178E+02  0.63377009390E+02  0.11602929304E+03  0.91484913448E+02 0.  0.
          5    1    3    3  502    0  0.42948313399E+02  0.30510148566E+01 -0.58153194295E+02  0.72510346312E+02  0.47000000000E+01 0. -1.
         -5    1    4    4    0  503 -0.13585364752E+02 -0.62854882440E+02  0.34970907141E+02  0.73350887713E+02  0.47000000000E+01 0.  1.
          5    1    4    4  503    0  0.61167165927E+01  0.30903647262E+02  0.28406102249E+02  0.42678405323E+02  0.47000000000E+01 0.  1.
         -5    1    3    3    0  502 -0.35479665240E+02  0.28900220321E+02 -0.12698261935E+02  0.47721748043E+02  0.47000000000E+01 0.  1.
<mgrwt>
<rscale>  0 0.97178030E+02</rscale>
<asrwt>0</asrwt>
<pdfrwt beam="1">  1        1 0.18748910E-01 0.97191314E+02</pdfrwt>
<pdfrwt beam="2">  1       -1 0.17598995E-01 0.97191314E+02</pdfrwt>
<totfact> 0.63900500E+03</totfact>
</mgrwt>
</event>
<event>
 8    1  0.6836165E-004  0.9310669E+02  0.7546771E-02  0.1296324E+00
         -1   -1    0    0    0  501 -0.00000000000E+00  0.00000000000E+00  0.35820445260E+03  0.35820445260E+03  0.00000000000E+00 0.  1.
          1   -1    0    0  501    0  0.00000000000E+00 -0.00000000000E+00 -0.26132568498E+02  0.26132568498E+02  0.00000000000E+00 0. -1.
         23    2    1    2    0    0 -0.99960066797E+01  0.42101228579E+01  0.22418141338E+03  0.24274711654E+03  0.92472759237E+02 0.  0.
         23    2    1    2    0    0  0.99960066797E+01 -0.42101228579E+01  0.10789047073E+03  0.14158990456E+03  0.91047801267E+02 0.  0.
          5    1    4    4  502    0 -0.79489892125E+00 -0.40621812269E+02  0.19581406965E+02  0.45346278734E+02  0.47000000000E+01 0. -1.
         -5    1    4    4    0  502  0.10790905601E+02  0.36411689411E+02  0.88309063764E+02  0.96243625827E+02  0.47000000000E+01 0.  1.
          5    1    3    3  503    0 -0.71388109032E+01  0.47932928632E+02  0.12813906358E+03  0.13707748861E+03  0.47000000000E+01 0. -1.
         -5    1    3    3    0  503 -0.28571957765E+01 -0.43722805774E+02  0.96042349793E+02  0.10566962793E+03  0.47000000000E+01 0.  1.
<mgrwt>
<rscale>  0 0.92750883E+02</rscale>
<asrwt>0</asrwt>
<pdfrwt beam="1">  1        1 0.40203954E-02 0.93106694E+02</pdfrwt>
<pdfrwt beam="2">  1       -1 0.55108374E-01 0.93106694E+02</pdfrwt>
<totfact> 0.70863691E+03</totfact>
</mgrwt>
</event>
<event>
 8    1  0.6836165E-004  0.9417356E+02  0.7546771E-02  0.1294022E+00
         -1   -1    0    0    0  501 -0.00000000000E+00  0.00000000000E+00  0.11159488005E+03  0.11159488005E+03  0.00000000000E+00 0.  1.
          1   -1    0    0  501    0  0.00000000000E+00 -0.00000000000E+00 -0.13155795510E+03  0.13155795510E+03  0.00000000000E+00 0. -1.
         23    2    1    2    0    0 -0.23568871325E+02 -0.80136790001E+01 -0.87461375785E+02  0.12728791050E+03  0.89067441626E+02 0.  0.
         23    2    1    2    0    0  0.23568871325E+02  0.80136790001E+01  0.67498300727E+02  0.11586492465E+03  0.90823727171E+02 0.  0.
          5    1    4    4  502    0  0.93289391030E+01  0.31125068677E+02 -0.94247152329E+01  0.34157199273E+02  0.47000000000E+01 0. -1.
         -5    1    3    3    0  503 -0.15601977749E+02  0.39922135152E+02 -0.47913863488E+02  0.64459498130E+02  0.47000000000E+01 0.  1.
          5    1    3    3  503    0 -0.79668935762E+01 -0.47935814152E+02 -0.39547512297E+02  0.62828412367E+02  0.47000000000E+01 0. -1.
         -5    1    4    4    0  502  0.14239932222E+02 -0.23111389677E+02  0.76923015960E+02  0.81707725381E+02  0.47000000000E+01 0.  1.
<mgrwt>
<rscale>  0 0.93747520E+02</rscale>
<asrwt>0</asrwt>
<pdfrwt beam="1">  1        1 0.20239685E-01 0.94173564E+02</pdfrwt>
<pdfrwt beam="2">  1       -1 0.17168443E-01 0.94173564E+02</pdfrwt>
<totfact> 0.60186690E+03</totfact>
</mgrwt>
</event>
<event>
 8    1  0.6836165E-004  0.1121356E+03  0.7546771E-02  0.1256824E+00
         -1   -1    0    0    0  501 -0.00000000000E+00  0.00000000000E+00  0.46164286208E+03  0.46164286208E+03  0.00000000000E+00 0.  1.
          1   -1    0    0  501    0  0.00000000000E+00 -0.00000000000E+00 -0.52984531004E+02  0.52984531004E+02  0.00000000000E+00 0. -1.
         23    2    1    2    0    0  0.36867688285E+02  0.54692689874E+02  0.38415614458E+03  0.40018786613E+03  0.90685544678E+02 0.  0.
         23    2    1    2    0    0 -0.36867688285E+02 -0.54692689874E+02  0.24502186494E+02  0.11443952695E+03  0.90252597864E+02 0.  0.
          5    1    3    3  502    0  0.46665245322E+02 -0.62393836362E+01  0.12271995276E+03  0.13152509964E+03  0.47000000000E+01 0. -1.
         -5    1    4    4    0  503 -0.21821127139E+02 -0.25133580434E+02  0.58017941664E+02  0.67052442237E+02  0.47000000000E+01 0.  1.
          5    1    4    4  503    0 -0.15046561146E+02 -0.29559109441E+02 -0.33515755170E+02  0.47387084716E+02  0.47000000000E+01 0. -1.
         -5    1    3    3    0  502 -0.97975570366E+01  0.60932073511E+02  0.26143619181E+03  0.26866276649E+03  0.47000000000E+01 0.  1.
<mgrwt>
<rscale>  0 0.11204800E+03</rscale>
<asrwt>0</asrwt>
<pdfrwt beam="1">  1        1 0.81514666E-02 0.11213556E+03</pdfrwt>
<pdfrwt beam="2">  1       -1 0.71021976E-01 0.11213556E+03</pdfrwt>
<totfact> 0.17063652E+03</totfact>
</mgrwt>
</event>
<event>
 8    1  0.6836165E-004  0.9519554E+02  0.7546771E-02  0.1291191E+00
          1   -1    0    0  501    0  0.00000000000E+00  0.00000000000E+00  0.51134186404E+03  0.51134186404E+03  0.00000000000E+00 0. -1.
         -1   -1    0    0    0  501 -0.00000000000E+00 -0.00000000000E+00 -0.23823062372E+02  0.23823062372E+02  0.00000000000E+00 0.  1.
         23    2    1    2    0    0 -0.13763269920E+02 -0.21890834499E+02  0.10593696450E+03  0.14188781046E+03  0.90779260160E+02 0.  0.
         23    2    1    2    0    0  0.13763269920E+02  0.21890834499E+02  0.38158183717E+03  0.39327711596E+03  0.91616348120E+02 0.  0.
          5    1    3    3  502    0 -0.47512783585E+02  0.70200849812E+01  0.67297984482E+02  0.82812166452E+02  0.47000000000E+01 0. -1.
         -5    1    4    4    0  503  0.11759091209E+00 -0.33107041511E+02  0.85926716556E+02  0.92204016416E+02  0.47000000000E+01 0.  1.
          5    1    4    4  503    0  0.13645679007E+02  0.54997876010E+02  0.29565512062E+03  0.30107309954E+03  0.47000000000E+01 0. -1.
         -5    1    3    3    0  502  0.33749513665E+02 -0.28910919481E+02  0.38638980015E+02  0.59075644004E+02  0.47000000000E+01 0.  1.
<mgrwt>
<rscale>  0 0.94993566E+02</rscale>
<asrwt>0</asrwt>
<pdfrwt beam="1">  1        1 0.78667971E-01 0.95195543E+02</pdfrwt>
<pdfrwt beam="2">  1       -1 0.36650869E-02 0.95195543E+02</pdfrwt>
<totfact> 0.11344002E+04</totfact>
</mgrwt>
</event>
<event>
 8    1  0.6836165E-004  0.9439294E+02  0.7546771E-02  0.1294372E+00
          1   -1    0    0  501    0  0.00000000000E+00  0.00000000000E+00  0.95847512781E+02  0.95847512781E+02  0.00000000000E+00 0. -1.
         -1   -1    0    0    0  501 -0.00000000000E+00 -0.00000000000E+00 -0.10518409480E+03  0.10518409480E+03  0.00000000000E+00 0.  1.
         23    2    1    2    0    0  0.76472606299E+01 -0.42686735293E+01  0.33731836652E+02  0.97277495064E+02  0.90820548738E+02 0.  0.
         23    2    1    2    0    0 -0.76472606299E+01  0.42686735293E+01 -0.43068418668E+02  0.10375411251E+03  0.93985770244E+02 0.  0.
          5    1    3    3  502    0  0.47635159181E+01 -0.37810137584E+02  0.47085249260E+02  0.60756960802E+02  0.47000000000E+01 0. -1.
         -5    1    3    3    0  502  0.28837447118E+01  0.33541464054E+02 -0.13353412608E+02  0.36520534262E+02  0.47000000000E+01 0.  1.
          5    1    4    4  503    0 -0.25391352496E+02 -0.68838407610E+01  0.22388626413E+02  0.34863284955E+02  0.47000000000E+01 0. -1.
         -5    1    4    4    0  503  0.17744091866E+02  0.11152514290E+02 -0.65457045081E+02  0.68890827560E+02  0.47000000000E+01 0.  1.
<mgrwt>
<rscale>  0 0.93595108E+02</rscale>
<asrwt>0</asrwt>
<pdfrwt beam="1">  1        1 0.14745771E-01 0.94392940E+02</pdfrwt>
<pdfrwt beam="2">  1       -1 0.16182168E-01 0.94392940E+02</pdfrwt>
<totfact> 0.98693955E+03</totfact>
</mgrwt>
</event>
<event>
 8    1  0.6836165E-004  0.1085854E+03  0.7546771E-02  0.1263832E+00
          2   -1    0    0  501    0  0.00000000000E+00  0.00000000000E+00  0.10625643671E+03  0.10625643671E+03  0.00000000000E+00 0. -1.
         -2   -1    0    0    0  501 -0.00000000000E+00 -0.00000000000E+00 -0.16364775077E+03  0.16364775077E+03  0.00000000000E+00 0.  1.
         23    2    1    2    0    0 -0.49817354203E+02 -0.28189842588E+02  0.48719153240E+02  0.11901407020E+03  0.92273273528E+02 0.  0.
         23    2    1    2    0    0  0.49817354203E+02  0.28189842588E+02 -0.10611046730E+03  0.15089011728E+03  0.90730150540E+02 0.  0.
          5    1    4    4  502    0  0.16814856860E+02 -0.32407003869E+02 -0.48438240941E+02  0.60838363689E+02  0.47000000000E+01 0. -1.
         -5    1    4    4    0  502  0.33002497343E+02  0.60596846457E+02 -0.57672226359E+02  0.90051753590E+02  0.47000000000E+01 0.  1.
          5    1    3    3  503    0 -0.26616265805E+02 -0.20259917344E+02  0.75311188010E+02  0.82539414196E+02  0.47000000000E+01 0. -1.
         -5    1    3    3    0  503 -0.23201088398E+02 -0.79299252440E+01 -0.26592034771E+02  0.36474656002E+02  0.47000000000E+01 0.  1.
<mgrwt>
<rscale>  0 0.10825687E+03</rscale>
<asrwt>0</asrwt>
<pdfrwt beam="1">  1        2 0.16347144E-01 0.10858542E+03</pdfrwt>
<pdfrwt beam="2">  1       -2 0.25176577E-01 0.10858542E+03</pdfrwt>
<totfact> 0.46411880E+03</totfact>
</mgrwt>
</event>
<event>
 8    1  0.6836165E-004  0.9378263E+02  0.7546771E-02  0.1294717E+00
          1   -1    0    0  501    0  0.00000000000E+00  0.00000000000E+00  0.18346134606E+03  0.18346134606E+03  0.00000000000E+00 0. -1.
         -1   -1    0    0    0  501 -0.00000000000E+00 -0.00000000000E+00 -0.12970031000E+03  0.12970031000E+03  0.00000000000E+00 0.  1.
         23    2    1    2    0    0  0.13298579212E+02 -0.11310711930E+02  0.15178813401E+03  0.17842314492E+03  0.92143348117E+02 0.  0.
         23    2    1    2    0    0 -0.13298579212E+02  0.11310711930E+02 -0.98027097952E+02  0.13473851114E+03  0.90776483949E+02 0.  0.
          5    1    4    4  502    0 -0.51341421586E+02  0.15453219139E+02 -0.54659974763E+02  0.76710797111E+02  0.47000000000E+01 0. -1.
         -5    1    4    4    0  502  0.38042842374E+02 -0.41425072087E+01 -0.43367123189E+02  0.58027714030E+02  0.47000000000E+01 0.  1.
          5    1    3    3  503    0  0.43312590580E+01 -0.36373141391E+02  0.16478410134E+02  0.40439995305E+02  0.47000000000E+01 0. -1.
         -5    1    3    3    0  503  0.89673201538E+01  0.25062429461E+02  0.13530972388E+03  0.13798314962E+03  0.47000000000E+01 0.  1.
<mgrwt>
<rscale>  0 0.93445154E+02</rscale>
<asrwt>0</asrwt>
<pdfrwt beam="1">  1        1 0.28224822E-01 0.93782626E+02</pdfrwt>
<pdfrwt beam="2">  1       -1 0.19953894E-01 0.93782626E+02</pdfrwt>
<totfact> 0.31377849E+03</totfact>
</mgrwt>
</event>
<event>
 8    1  0.6836165E-004  0.9300383E+02  0.7546771E-02  0.1296008E+00
          2   -1    0    0  501    0  0.00000000000E+00  0.00000000000E+00  0.67237712285E+02  0.67237712285E+02  0.00000000000E+00 0. -1.
         -2   -1    0    0    0  501 -0.00000000000E+00 -0.00000000000E+00 -0.14557987312E+03  0.14557987312E+03  0.00000000000E+00 0.  1.
         23    2    1    2    0    0 -0.64124202833E+01  0.15198072079E+02 -0.76238269110E+02  0.12025799744E+03  0.91529294445E+02 0.  0.
         23    2    1    2    0    0  0.64124202833E+01 -0.15198072079E+02 -0.21038917257E+01  0.92559587970E+02  0.91053558064E+02 0.  0.
          5    1    4    4  502    0 -0.24931547958E+02  0.25034802492E+02 -0.16616470999E+02  0.39325825202E+02  0.47000000000E+01 0. -1.
         -5    1    3    3    0  503 -0.25005163617E+02 -0.28865370351E+02 -0.56384326218E+02  0.68262361929E+02  0.47000000000E+01 0.  1.
          5    1    3    3  503    0  0.18592743334E+02  0.44063442430E+02 -0.19853942891E+02  0.51995635507E+02  0.47000000000E+01 0. -1.
         -5    1    4    4    0  502  0.31343968242E+02 -0.40232874570E+02  0.14512579273E+02  0.53233762768E+02  0.47000000000E+01 0.  1.
<mgrwt>
<rscale>  0 0.92886569E+02</rscale>
<asrwt>0</asrwt>
<pdfrwt beam="1">  1        2 0.10344264E-01 0.93003829E+02</pdfrwt>
<pdfrwt beam="2">  1       -2 0.22396903E-01 0.93003829E+02</pdfrwt>
<totfact> 0.96161829E+03</totfact>
</mgrwt>
</event>
<event>
 8    1  0.6836165E-004  0.1320715E+03  0.7546771E-02  0.1230457E+00
          1   -1    0    0  501    0  0.00000000000E+00  0.00000000000E+00  0.80173413724E+03  0.80173413724E+03  0.00000000000E+00 0. -1.
         -1   -1    0    0    0  501 -0.00000000000E+00 -0.00000000000E+00 -0.21581227563E+02  0.21581227563E+02  0.00000000000E+00 0.  1.
         23    2    1    2    0    0  0.78517627211E+01  0.73286779357E+02  0.54637423624E+03  0.56211001957E+03  0.10959135851E+03 0.  0.
         23    2    1    2    0    0 -0.78517627211E+01 -0.73286779357E+02  0.23377867343E+03  0.26120534524E+03  0.90239470419E+02 0.  0.
          5    1    3    3  502    0 -0.26354691057E+02 -0.19064950306E+02  0.16127470556E+03  0.16458937610E+03  0.47000000000E+01 0. -1.
         -5    1    3    3    0  502  0.34206453778E+02  0.92351729663E+02  0.38509953068E+03  0.39752064347E+03  0.47000000000E+01 0.  1.
          5    1    4    4  503    0  0.18933985654E+02 -0.84335941102E+02  0.18550264971E+03  0.20470556862E+03  0.47000000000E+01 0. -1.
         -5    1    4    4    0  503 -0.26785748375E+02  0.11049161745E+02  0.48276023722E+02  0.56499776616E+02  0.47000000000E+01 0.  1.
<mgrwt>
<rscale>  0 0.12799772E+03</rscale>
<asrwt>0</asrwt>
<pdfrwt beam="1">  1        1 0.12334369E+00 0.13207145E+03</pdfrwt>
<pdfrwt beam="2">  1       -1 0.33201895E-02 0.13207145E+03</pdfrwt>
<totfact> 0.71876921E+03</totfact>
</mgrwt>
</event>
<event>
 8    1  0.6992936E-004  0.9396535E+02  0.7546771E-02  0.1295814E+00
          2   -1    0    0  501    0  0.00000000000E+00  0.00000000000E+00  0.47171843717E+03  0.47171843717E+03  0.00000000000E+00 0. -1.
         -2   -1    0    0    0  501 -0.00000000000E+00 -0.00000000000E+00 -0.33098588992E+02  0.33098588992E+02  0.00000000000E+00 0.  1.
         23    2    1    2    0    0  0.59482791076E+01 -0.56541201306E+01  0.39260556044E+03  0.40369371139E+03  0.93606278780E+02 0.  0.
         23    2    1    2    0    0 -0.59482791076E+01  0.56541201306E+01  0.46014287736E+02  0.10112331477E+03  0.89673067394E+02 0.  0.
          5    1    4    4  502    0 -0.74596787591E+01  0.37598120907E+02  0.55339327094E+02  0.67481824413E+02  0.47000000000E+01 0. -1.
         -5    1    3    3    0  503  0.39993298132E+02 -0.29949458260E+02  0.25090585829E+03  0.25587550424E+03  0.47000000000E+01 0.  1.
          5    1    3    3  503    0 -0.34045019025E+02  0.24295338129E+02  0.14169970215E+03  0.14781820715E+03  0.47000000000E+01 0. -1.
         -5    1    4    4    0  502  0.15113996516E+01 -0.31944000777E+02 -0.93250393577E+01  0.33641490359E+02  0.47000000000E+01 0.  1.
<mgrwt>
<rscale>  0 0.92970271E+02</rscale>
<asrwt>0</asrwt>
<pdfrwt beam="1">  1        2 0.72572062E-01 0.93965347E+02</pdfrwt>
<pdfrwt beam="2">  1       -2 0.50920910E-02 0.93965347E+02</pdfrwt>
<totfact> 0.11660442E+04</totfact>
</mgrwt>
</event>
<event>
 8    1  0.6836165E-004  0.1367616E+03  0.7546771E-02  0.1218617E+00
          2   -1    0    0  501    0  0.00000000000E+00  0.00000000000E+00  0.25722493617E+03  0.25722493617E+03  0.00000000000E+00 0. -1.
         -2   -1    0    0    0  501 -0.00000000000E+00 -0.00000000000E+00 -0.13574367499E+03  0.13574367499E+03  0.00000000000E+00 0.  1.
         23    2    1    2    0    0 -0.70571063011E+02  0.71169286950E+02 -0.74231552702E+02  0.15560864908E+03  0.93050448205E+02 0.  0.
         23    2    1    2    0    0  0.70571063011E+02 -0.71169286950E+02  0.19571281388E+03  0.23735996209E+03  0.89391855038E+02 0.  0.
          5    1    4    4  502    0 -0.16605536633E+02 -0.32647947528E+02  0.73974290527E+02  0.82679610447E+02  0.47000000000E+01 0. -1.
         -5    1    4    4    0  502  0.87176599644E+02 -0.38521339422E+02  0.12173852335E+03  0.15468035164E+03  0.47000000000E+01 0.  1.
          5    1    3    3  503    0 -0.41126870555E+02 -0.10746577008E+02 -0.27151077831E+01  0.42852890326E+02  0.47000000000E+01 0. -1.
         -5    1    3    3    0  503 -0.29444192456E+02  0.81915863958E+02 -0.71516444919E+02  0.11275575875E+03  0.47000000000E+01 0.  1.
<mgrwt>
<rscale>  0 0.13614175E+03</rscale>
<asrwt>0</asrwt>
<pdfrwt beam="1">  1        2 0.39573067E-01 0.13676157E+03</pdfrwt>
<pdfrwt beam="2">  1       -2 0.20883642E-01 0.13676157E+03</pdfrwt>
<totfact> 0.24507002E+03</totfact>
</mgrwt>
</event>
<event>
 8    1  0.6836165E-004  0.1180214E+03  0.7546771E-02  0.1247789E+00
          1   -1    0    0  501    0  0.00000000000E+00  0.00000000000E+00  0.13205600083E+04  0.13205600083E+04  0.00000000000E+00 0. -1.
         -1   -1    0    0    0  501 -0.00000000000E+00 -0.00000000000E+00 -0.11358427650E+02  0.11358427650E+02  0.00000000000E+00 0.  1.
         23    2    1    2    0    0 -0.70125067255E+02 -0.23678466371E+02  0.43920141913E+03  0.45394956488E+03  0.87716167607E+02 0.  0.
         23    2    1    2    0    0  0.70125067255E+02  0.23678466371E+02  0.87000016156E+03  0.87796887111E+03  0.91928573899E+02 0.  0.
          5    1    3    3  502    0 -0.46001062020E+02  0.25991231271E+02  0.28950675233E+03  0.29432616509E+03  0.47000000000E+01 0. -1.
         -5    1    4    4    0  503 -0.95905235721E+01  0.29687171421E+02  0.13591643686E+03  0.13953019063E+03  0.47000000000E+01 0.  1.
          5    1    4    4  503    0  0.79715590827E+02 -0.60087050498E+01  0.73408372470E+03  0.73843868048E+03  0.47000000000E+01 0. -1.
         -5    1    3    3    0  502 -0.24124005235E+02 -0.49669697642E+02  0.14969466680E+03  0.15962339979E+03  0.47000000000E+01 0.  1.
<mgrwt>
<rscale>  0 0.11720022E+03</rscale>
<asrwt>0</asrwt>
<pdfrwt beam="1">  1        1 0.20316296E+00 0.11802143E+03</pdfrwt>
<pdfrwt beam="2">  1       -1 0.17474514E-02 0.11802143E+03</pdfrwt>
<totfact> 0.76410197E+03</totfact>
</mgrwt>
</event>
<event>
 8    1  0.6836165E-004  0.9563049E+02  0.7546771E-02  0.1290753E+00
         -2   -1    0    0    0  501 -0.00000000000E+00  0.00000000000E+00  0.35406381566E+02  0.35406381566E+02  0.00000000000E+00 0.  1.
          2   -1    0    0  501    0  0.00000000000E+00 -0.00000000000E+00 -0.26187008911E+03  0.26187008911E+03  0.00000000000E+00 0. -1.
         23    2    1    2    0    0  0.69470696566E+01  0.25216824245E+02 -0.13868147958E+03  0.16746541410E+03  0.90155211384E+02 0.  0.
         23    2    1    2    0    0 -0.69470696566E+01 -0.25216824245E+02 -0.87782227964E+02  0.12981105657E+03  0.91983916316E+02 0.  0.
          5    1    3    3  502    0 -0.28036253553E+02 -0.87402811358E+01 -0.10207024855E+03  0.10631486099E+03  0.47000000000E+01 0. -1.
         -5    1    3    3    0  502  0.34983323209E+02  0.33957105380E+02 -0.36611231028E+02  0.61150553112E+02  0.47000000000E+01 0.  1.
          5    1    4    4  503    0 -0.38933720870E+02 -0.20829574330E+02 -0.86414630241E+02  0.97155978237E+02  0.47000000000E+01 0. -1.
         -5    1    4    4    0  503  0.31986651213E+02 -0.43872499147E+01 -0.13675977226E+01  0.32655078337E+02  0.47000000000E+01 0.  1.
<mgrwt>
<rscale>  0 0.95188020E+02</rscale>
<asrwt>0</asrwt>
<pdfrwt beam="1">  1        2 0.40287704E-01 0.95630491E+02</pdfrwt>
<pdfrwt beam="2">  1       -2 0.54471359E-02 0.95630491E+02</pdfrwt>
<totfact> 0.19624361E+04</totfact>
</mgrwt>
</event>
<event>
 8    1  0.6836165E-004  0.4691437E+03  0.7546771E-02  0.1022197E+00
         -1   -1    0    0    0  501 -0.00000000000E+00  0.00000000000E+00  0.72892955766E+03  0.72892955766E+03  0.00000000000E+00 0.  1.
          1   -1    0    0  501    0  0.00000000000E+00 -0.00000000000E+00 -0.30464890156E+03  0.30464890156E+03  0.00000000000E+00 0. -1.
         23    2    1    2    0    0 -0.37493927209E+03  0.26600686507E+03  0.16077847953E+03  0.49592893757E+03  0.93577142624E+02 0.  0.
         23    2    1    2    0    0  0.37493927209E+03 -0.26600686507E+03  0.26350217658E+03  0.53764952165E+03  0.91074151357E+02 0.  0.
          5    1    4    4  502    0  0.87565598975E+02 -0.19360935980E+02  0.55185098680E+02  0.10540429347E+03  0.47000000000E+01 0. -1.
         -5    1    3    3    0  503 -0.85921361181E+02  0.11147349076E+03  0.37381828823E+02  0.14569938427E+03  0.47000000000E+01 0.  1.
          5    1    3    3  503    0 -0.28901791091E+03  0.15453337430E+03  0.12339665070E+03  0.35022955330E+03  0.47000000000E+01 0. -1.
         -5    1    4    4    0  502  0.28737367312E+03 -0.24664592909E+03  0.20831707790E+03  0.43224522818E+03  0.47000000000E+01 0.  1.
<mgrwt>
<rscale>  0 0.46902042E+03</rscale>
<asrwt>0</asrwt>
<pdfrwt beam="1">  1        1 0.46869062E-01 0.46914368E+03</pdfrwt>
<pdfrwt beam="2">  1       -1 0.11214301E+00 0.46914368E+03</pdfrwt>
<totfact> 0.65453695E+01</totfact>
</mgrwt>
</event>
<event>
 8    1  0.6836165E-004  0.9600936E+02  0.7546771E-02  0.1290323E+00
         -1   -1    0    0    0  501 -0.00000000000E+00  0.00000000000E+00  0.13222720120E+03  0.13222720120E+03  0.00000000000E+00 0.  1.
          1   -1    0    0  501    0  0.00000000000E+00 -0.00000000000E+00 -0.10657250281E+03  0.10657250281E+03  0.00000000000E+00 0. -1.
         23    2    1    2    0    0 -0.18762957808E+02  0.50999338424E+01  0.84844635863E+02  0.12812653906E+03  0.94019890794E+02 0.  0.
         23    2    1    2    0    0  0.18762957808E+02 -0.50999338424E+01 -0.59189937474E+02  0.11067316495E+03  0.91471541102E+02 0.  0.
          5    1    4    4  502    0  0.48698561938E+02  0.20172999555E+02 -0.42314734184E+02  0.67757852497E+02  0.47000000000E+01 0. -1.
         -5    1    3    3    0  503 -0.37068406102E+02 -0.19351482140E+02  0.87516829674E+02  0.97107322423E+02  0.47000000000E+01 0.  1.
          5    1    3    3  503    0  0.18305448293E+02  0.24451415983E+02 -0.26721938115E+01  0.31019216633E+02  0.47000000000E+01 0. -1.
         -5    1    4    4    0  502 -0.29935604130E+02 -0.25272933398E+02 -0.16875203290E+02  0.42915312456E+02  0.47000000000E+01 0.  1.
<mgrwt>
<rscale>  0 0.95379665E+02</rscale>
<asrwt>0</asrwt>
<pdfrwt beam="1">  1        1 0.16395770E-01 0.96009363E+02</pdfrwt>
<pdfrwt beam="2">  1       -1 0.20342646E-01 0.96009363E+02</pdfrwt>
<totfact> 0.60170189E+03</totfact>
</mgrwt>
</event>
<event>
 8    1  0.6836165E-004  0.1071497E+03  0.7546771E-02  0.1269439E+00
         -1   -1    0    0    0  501 -0.00000000000E+00  0.00000000000E+00  0.19595251000E+02  0.19595251000E+02  0.00000000000E+00 0.  1.
          1   -1    0    0  501    0  0.00000000000E+00 -0.00000000000E+00 -0.56945339729E+03  0.56945339729E+03  0.00000000000E+00 0. -1.
         23    2    1    2    0    0  0.30076523785E+02  0.36954467756E+02 -0.22687438741E+03  0.25090446536E+03  0.95973085318E+02 0.  0.
         23    2    1    2    0    0 -0.30076523785E+02 -0.36954467756E+02 -0.32298375888E+03  0.33814418293E+03  0.88049701748E+02 0.  0.
          5    1    3    3  502    0  0.51785756697E+02  0.14175257392E+02 -0.58468796639E+02  0.79519762948E+02  0.47000000000E+01 0.  1.
         -5    1    3    3    0  502 -0.21709232913E+02  0.22779210364E+02 -0.16840559077E+03  0.17138470241E+03  0.47000000000E+01 0. -1.
          5    1    4    4  503    0 -0.41651543474E+02 -0.59834247415E+02 -0.21557802165E+03  0.22762021363E+03  0.47000000000E+01 0. -1.
         -5    1    4    4    0  503  0.11575019689E+02  0.22879779659E+02 -0.10740573724E+03  0.11052396930E+03  0.47000000000E+01 0.  1.
<mgrwt>
<rscale>  0 0.10534596E+03</rscale>
<asrwt>0</asrwt>
<pdfrwt beam="1">  1        1 0.87608216E-01 0.10714972E+03</pdfrwt>
<pdfrwt beam="2">  1       -1 0.30146540E-02 0.10714972E+03</pdfrwt>
<totfact> 0.13202777E+04</totfact>
</mgrwt>
</event>
<event>
 8    1  0.6836165E-004  0.1056060E+03  0.7546771E-02  0.1269007E+00
          1   -1    0    0  501    0  0.00000000000E+00  0.00000000000E+00  0.38962187465E+03  0.38962187465E+03  0.00000000000E+00 0. -1.
         -1   -1    0    0    0  501 -0.00000000000E+00 -0.00000000000E+00 -0.30797653161E+02  0.30797653161E+02  0.00000000000E+00 0.  1.
         23    2    1    2    0    0 -0.39741464229E+02  0.33490158375E+02  0.12290455334E+03  0.16194184291E+03  0.91753237358E+02 0.  0.
         23    2    1    2    0    0  0.39741464229E+02 -0.33490158375E+02  0.23591966815E+03  0.25847768491E+03  0.91932850963E+02 0.  0.
          5    1    4    4  502    0  0.24619221588E+02  0.25368895310E+02  0.14278259846E+03  0.14716877163E+03  0.47000000000E+01 0. -1.
         -5    1    3    3    0  503 -0.39972555028E+02  0.69510860800E+01  0.51796189692E+01  0.41170878128E+02  0.47000000000E+01 0.  1.
          5    1    3    3  503    0  0.23109079906E+00  0.26539072295E+02  0.11772493437E+03  0.12077096478E+03  0.47000000000E+01 0. -1.
         -5    1    4    4    0  502  0.15122242641E+02 -0.58859053685E+02  0.93137069690E+02  0.11130891327E+03  0.47000000000E+01 0.  1.
<mgrwt>
<rscale>  0 0.10556688E+03</rscale>
<asrwt>0</asrwt>
<pdfrwt beam="1">  1        1 0.59941824E-01 0.10560598E+03</pdfrwt>
<pdfrwt beam="2">  1       -1 0.47381007E-02 0.10560598E+03</pdfrwt>
<totfact> 0.11101799E+04</totfact>
</mgrwt>
</event>
<event>
 8    1  0.6836165E-004  0.1152082E+03  0.7546771E-02  0.1254184E+00
         -2   -1    0    0    0  501 -0.00000000000E+00  0.00000000000E+00  0.65485851877E+02  0.65485851877E+02  0.00000000000E+00 0. -1.
          2   -1    0    0  501    0  0.00000000000E+00 -0.00000000000E+00 -0.20199878799E+03  0.20199878799E+03  0.00000000000E+00 0.  1.
         23    2    1    2    0    0 -0.61235304092E+02  0.24940039157E+02 -0.39305844164E+02  0.12172869511E+03  0.94345947485E+02 0.  0.
         23    2    1    2    0    0  0.61235304092E+02 -0.24940039157E+02 -0.97207091951E+02  0.14575594476E+03  0.86161526723E+02 0.  0.
          5    1    3    3  502    0 -0.57940514377E+02  0.47228623603E+02  0.14622167533E+01  0.74912443369E+02  0.47000000000E+01 0. -1.
         -5    1    4    4    0  503  0.33742142102E+02 -0.49482522863E+02 -0.89530790555E+02  0.10781885123E+03  0.47000000000E+01 0.  1.
          5    1    4    4  503    0  0.27493161990E+02  0.24542483706E+02 -0.76763013951E+01  0.37937093533E+02  0.47000000000E+01 0. -1.
         -5    1    3    3    0  502 -0.32947897150E+01 -0.22288584446E+02 -0.40768060917E+02  0.46816251739E+02  0.47000000000E+01 0.  1.
<mgrwt>
<rscale>  0 0.11352131E+03</rscale>
<asrwt>0</asrwt>
<pdfrwt beam="1">  1        2 0.31076736E-01 0.11520818E+03</pdfrwt>
<pdfrwt beam="2">  1       -2 0.10074747E-01 0.11520818E+03</pdfrwt>
<totfact> 0.10283493E+04</totfact>
</mgrwt>
</event>
<event>
 8    1  0.6836165E-004  0.9707101E+02  0.7546771E-02  0.1287209E+00
          1   -1    0    0  501    0  0.00000000000E+00  0.00000000000E+00  0.41200371201E+03  0.41200371201E+03  0.00000000000E+00 0. -1.
         -1   -1    0    0    0  501 -0.00000000000E+00 -0.00000000000E+00 -0.23407281427E+02  0.23407281427E+02  0.00000000000E+00 0.  1.
         23    2    1    2    0    0  0.15477839651E+02  0.17258593623E+02  0.23580254582E+03  0.25500121888E+03  0.94262179280E+02 0.  0.
         23    2    1    2    0    0 -0.15477839651E+02 -0.17258593623E+02  0.15279388477E+03  0.18040977456E+03  0.93082183900E+02 0.  0.
          5    1    3    3  502    0  0.38359585173E+02 -0.26131231229E+02  0.13423332314E+03  0.14210902175E+03  0.47000000000E+01 0. -1.
         -5    1    3    3    0  502 -0.22881745522E+02  0.43389824852E+02  0.10156922267E+03  0.11289219713E+03  0.47000000000E+01 0.  1.
          5    1    4    4  503    0  0.22054889902E+02  0.28001374833E+02  0.45708088172E+02  0.58153370371E+02  0.47000000000E+01 0. -1.
         -5    1    4    4    0  503 -0.37532729553E+02 -0.45259968456E+02  0.10708579659E+03  0.12225640419E+03  0.47000000000E+01 0.  1.
<mgrwt>
<rscale>  0 0.96783375E+02</rscale>
<asrwt>0</asrwt>
<pdfrwt beam="1">  1        1 0.63385181E-01 0.97071010E+02</pdfrwt>
<pdfrwt beam="2">  1       -1 0.36011205E-02 0.97071010E+02</pdfrwt>
<totfact> 0.15334315E+04</totfact>
</mgrwt>
</event>
<event>
 8    1  0.6836165E-004  0.1037490E+03  0.7546771E-02  0.1276222E+00
         -1   -1    0    0    0  501 -0.00000000000E+00  0.00000000000E+00  0.19883090492E+03  0.19883090492E+03  0.00000000000E+00 0.  1.
          1   -1    0    0  501    0  0.00000000000E+00 -0.00000000000E+00 -0.51476192372E+02  0.51476192372E+02  0.00000000000E+00 0. -1.
         23    2    1    2    0    0 -0.33703630315E+02  0.77032490242E+01  0.92848284994E+02  0.13922880163E+03  0.97819121009E+02 0.  0.
         23    2    1    2    0    0  0.33703630315E+02 -0.77032490242E+01  0.54506427555E+02  0.11107829566E+03  0.90400013168E+02 0.  0.
          5    1    3    3  502    0 -0.27454457024E+02 -0.20993924241E+02 -0.65382398516E+01  0.35487048988E+02  0.47000000000E+01 0. -1.
         -5    1    4    4    0  503  0.25424701251E+02  0.23797316251E+02  0.67179297785E+02  0.75814746226E+02  0.47000000000E+01 0.  1.
          5    1    4    4  503    0  0.82789290640E+01 -0.31500565275E+02 -0.12672870229E+02  0.35263549438E+02  0.47000000000E+01 0. -1.
         -5    1    3    3    0  502 -0.62491732916E+01  0.28697173266E+02  0.99386524845E+02  0.10374175264E+03  0.47000000000E+01 0.  1.
<mgrwt>
<rscale>  0 0.10196252E+03</rscale>
<asrwt>0</asrwt>
<pdfrwt beam="1">  1        1 0.79194143E-02 0.10374900E+03</pdfrwt>
<pdfrwt beam="2">  1       -1 0.30589370E-01 0.10374900E+03</pdfrwt>
<totfact> 0.80396919E+03</totfact>
</mgrwt>
</event>
<event>
 8    1  0.6836165E-004  0.9293081E+02  0.7546771E-02  0.1298897E+00
         -1   -1    0    0    0  501 -0.00000000000E+00  0.00000000000E+00  0.64732940463E+02  0.64732940463E+02  0.00000000000E+00 0.  1.
          1   -1    0    0  501    0  0.00000000000E+00 -0.00000000000E+00 -0.16356215274E+03  0.16356215274E+03  0.00000000000E+00 0. -1.
         23    2    1    2    0    0 -0.34908001431E+01 -0.10873523992E+02  0.60923787392E+01  0.88135631117E+02  0.87180004496E+02 0.  0.
         23    2    1    2    0    0  0.34908001431E+01  0.10873523992E+02 -0.10492159101E+03  0.14015946209E+03  0.92226435155E+02 0.  0.
          5    1    4    4  502    0 -0.29590171714E+02  0.17531006945E+00 -0.46161270539E+00  0.29965181160E+02  0.47000000000E+01 0. -1.
         -5    1    3    3    0  503  0.31442713549E+02  0.37924088292E+01  0.29347768428E+02  0.43432799953E+02  0.47000000000E+01 0.  1.
          5    1    3    3  503    0 -0.34933513692E+02 -0.14665932822E+02 -0.23255389689E+02  0.44702831163E+02  0.47000000000E+01 0. -1.
         -5    1    4    4    0  502  0.33080971857E+02  0.10698213923E+02 -0.10445997831E+03  0.11019428092E+03  0.47000000000E+01 0.  1.
<mgrwt>
<rscale>  0 0.91653201E+02</rscale>
<asrwt>0</asrwt>
<pdfrwt beam="1">  1        1 0.25163407E-01 0.92930805E+02</pdfrwt>
<pdfrwt beam="2">  1       -1 0.99589142E-02 0.92930805E+02</pdfrwt>
<totfact> 0.10583724E+04</totfact>
</mgrwt>
</event>
<event>
 8    1  0.6836165E-004  0.9547579E+02  0.7546771E-02  0.1290823E+00
          2   -1    0    0  501    0  0.00000000000E+00  0.00000000000E+00  0.59768352398E+03  0.59768352398E+03  0.00000000000E+00 0. -1.
         -2   -1    0    0    0  501 -0.00000000000E+00 -0.00000000000E+00 -0.15062376069E+02  0.15062376069E+02  0.00000000000E+00 0.  1.
         23    2    1    2    0    0 -0.20831654439E+02 -0.17491436599E+02  0.30215729234E+03  0.31688271583E+03  0.91518949371E+02 0.  0.
         23    2    1    2    0    0  0.20831654439E+02  0.17491436599E+02  0.28046385557E+03  0.29586318422E+03  0.90195018244E+02 0.  0.
          5    1    3    3  502    0  0.10138336262E+02 -0.49383546142E+02  0.15185871554E+03  0.16007710635E+03  0.47000000000E+01 0. -1.
         -5    1    3    3    0  502 -0.30969990701E+02  0.31892109543E+02  0.15029857680E+03  0.15680560948E+03  0.47000000000E+01 0.  1.
          5    1    4    4  503    0  0.27053873641E+02 -0.29868315745E+02  0.18009058455E+03  0.18460427137E+03  0.47000000000E+01 0. -1.
         -5    1    4    4    0  503 -0.62222192020E+01  0.47359752344E+02  0.10037327102E+03  0.11125891285E+03  0.47000000000E+01 0.  1.
<mgrwt>
<rscale>  0 0.95157120E+02</rscale>
<asrwt>0</asrwt>
<pdfrwt beam="1">  1        2 0.91951293E-01 0.95475789E+02</pdfrwt>
<pdfrwt beam="2">  1       -2 0.23172891E-02 0.95475789E+02</pdfrwt>
<totfact> 0.28539224E+04</totfact>
</mgrwt>
</event>
<event>
 8    1  0.6836165E-004  0.9972323E+02  0.7546771E-02  0.1280943E+00
         -1   -1    0    0    0  501 -0.00000000000E+00  0.00000000000E+00  0.87823830122E+03  0.87823830122E+03  0.00000000000E+00 0.  1.
          1   -1    0    0  501    0  0.00000000000E+00 -0.00000000000E+00 -0.11524367945E+02  0.11524367945E+02  0.00000000000E+00 0. -1.
         23    2    1    2    0    0  0.10314485977E+02  0.32272039581E+02  0.37238452503E+03  0.38547476793E+03  0.93662634319E+02 0.  0.
         23    2    1    2    0    0 -0.10314485977E+02 -0.32272039581E+02  0.49432940825E+03  0.50428790124E+03  0.93791525836E+02 0.  0.
          5    1    3    3  502    0  0.30567807810E+02  0.55664246114E+02  0.18900909508E+03  0.19944780568E+03  0.47000000000E+01 0. -1.
         -5    1    4    4    0  503 -0.96049984040E+01 -0.60558374569E+02  0.42236009222E+03  0.42681343726E+03  0.47000000000E+01 0.  1.
          5    1    4    4  503    0 -0.70948757306E+00  0.28286334988E+02  0.71969316032E+02  0.77474463985E+02  0.47000000000E+01 0. -1.
         -5    1    3    3    0  502 -0.20253321833E+02 -0.23392206533E+02  0.18337542995E+03  0.18602696224E+03  0.47000000000E+01 0.  1.
<mgrwt>
<rscale>  0 0.99692917E+02</rscale>
<asrwt>0</asrwt>
<pdfrwt beam="1">  1        1 0.17729804E-02 0.99723234E+02</pdfrwt>
<pdfrwt beam="2">  1       -1 0.13511353E+00 0.99723234E+02</pdfrwt>
<totfact> 0.33387611E+03</totfact>
</mgrwt>
</event>
<event>
 8    1  0.6836165E-004  0.1180579E+03  0.7546771E-02  0.1247782E+00
          2   -1    0    0  501    0  0.00000000000E+00  0.00000000000E+00  0.21372224678E+03  0.21372224678E+03  0.00000000000E+00 0. -1.
         -2   -1    0    0    0  501 -0.00000000000E+00 -0.00000000000E+00 -0.98627000465E+02  0.98627000465E+02  0.00000000000E+00 0.  1.
         23    2    1    2    0    0  0.22451297926E+02 -0.70239906706E+02 -0.35297388422E+02  0.12322160884E+03  0.92195195006E+02 0.  0.
         23    2    1    2    0    0 -0.22451297926E+02  0.70239906706E+02  0.15039263474E+03  0.18912763841E+03  0.87827181182E+02 0.  0.
          5    1    4    4  502    0  0.23618211037E+02  0.61573984149E+02  0.10228783038E+03  0.12179517913E+03  0.47000000000E+01 0. -1.
         -5    1    3    3    0  503  0.26341746618E+02 -0.91604277993E+02 -0.32566046059E+02  0.10083585036E+03  0.47000000000E+01 0.  1.
          5    1    3    3  503    0 -0.38904486918E+01  0.21364371288E+02 -0.27313423636E+01  0.22385758478E+02  0.47000000000E+01 0. -1.
         -5    1    4    4    0  502 -0.46069508963E+02  0.86659225564E+01  0.48104804365E+02  0.67332459281E+02  0.47000000000E+01 0.  1.
<mgrwt>
<rscale>  0 0.11720398E+03</rscale>
<asrwt>0</asrwt>
<pdfrwt beam="1">  1        2 0.32880345E-01 0.11805786E+03</pdfrwt>
<pdfrwt beam="2">  1       -2 0.15173385E-01 0.11805786E+03</pdfrwt>
<totfact> 0.50434514E+03</totfact>
</mgrwt>
</event>
<event>
 8    1  0.6836165E-004  0.1385960E+03  0.7546771E-02  0.1216216E+00
         -1   -1    0    0    0  501 -0.00000000000E+00  0.00000000000E+00  0.74456569699E+02  0.74456569699E+02  0.00000000000E+00 0.  1.
          1   -1    0    0  501    0  0.00000000000E+00 -0.00000000000E+00 -0.25901129169E+03  0.25901129169E+03  0.00000000000E+00 0. -1.
         23    2    1    2    0    0  0.95139650831E+02  0.31834492021E+02 -0.11737515209E+03  0.17944854251E+03  0.91432297574E+02 0.  0.
         23    2    1    2    0    0 -0.95139650831E+02 -0.31834492021E+02 -0.67179569900E+02  0.15401931887E+03  0.95623574145E+02 0.  0.
          5    1    3    3  502    0 -0.67394330254E+00  0.36033249753E+02 -0.15674117314E+02  0.39580515925E+02  0.47000000000E+01 0. -1.
         -5    1    4    4    0  503 -0.19761207240E+02  0.21393100181E+02  0.12473038965E+02  0.32028686329E+02  0.47000000000E+01 0.  1.
          5    1    4    4  503    0 -0.75378443591E+02 -0.53227592203E+02 -0.79652608865E+02  0.12199063255E+03  0.47000000000E+01 0. -1.
         -5    1    3    3    0  502  0.95813594133E+02 -0.41987577316E+01 -0.10170103478E+03  0.13986802659E+03  0.47000000000E+01 0.  1.
<mgrwt>
<rscale>  0 0.13787597E+03</rscale>
<asrwt>0</asrwt>
<pdfrwt beam="1">  1        1 0.39847892E-01 0.13859602E+03</pdfrwt>
<pdfrwt beam="2">  1       -1 0.11454857E-01 0.13859602E+03</pdfrwt>
<totfact> 0.49908948E+03</totfact>
</mgrwt>
</event>
<event>
 8    1  0.6836165E-004  0.9851908E+02  0.7546771E-02  0.1285292E+00
          1   -1    0    0  501    0  0.00000000000E+00  0.00000000000E+00  0.28361014045E+02  0.28361014045E+02  0.00000000000E+00 0. -1.
         -1   -1    0    0    0  501 -0.00000000000E+00 -0.00000000000E+00 -0.35122558723E+03  0.35122558723E+03  0.00000000000E+00 0.  1.
         23    2    1    2    0    0 -0.25488539584E+02 -0.11170699871E+02 -0.21010882660E+03  0.23205974963E+03  0.94506921416E+02 0.  0.
         23    2    1    2    0    0  0.25488539584E+02  0.11170699871E+02 -0.11275574658E+03  0.14752685165E+03  0.90971772457E+02 0.  0.
          5    1    3    3  502    0 -0.34834705184E+02  0.35143272666E+02 -0.88375200289E+02  0.10139414345E+03  0.47000000000E+01 0. -1.
         -5    1    4    4    0  503  0.52419371251E+02 -0.12632323007E+02 -0.89072362956E+02  0.10422735682E+03  0.47000000000E+01 0.  1.
          5    1    4    4  503    0 -0.26930831667E+02  0.23803022878E+02 -0.23683383627E+02  0.43299494829E+02  0.47000000000E+01 0. -1.
         -5    1    3    3    0  502  0.93461656002E+01 -0.46313972537E+02 -0.12173362632E+03  0.13066560618E+03  0.47000000000E+01 0.  1.
<mgrwt>
<rscale>  0 0.97661458E+02</rscale>
<asrwt>0</asrwt>
<pdfrwt beam="1">  1        1 0.43632327E-02 0.98519076E+02</pdfrwt>
<pdfrwt beam="2">  1       -1 0.54034708E-01 0.98519076E+02</pdfrwt>
<totfact> 0.66064744E+03</totfact>
</mgrwt>
</event>
<event>
 8    1  0.6836165E-004  0.1082978E+03  0.7546771E-02  0.1263980E+00
          2   -1    0    0  501    0  0.00000000000E+00  0.00000000000E+00  0.49292802268E+03  0.49292802268E+03  0.00000000000E+00 0. -1.
         -2   -1    0    0    0  501 -0.00000000000E+00 -0.00000000000E+00 -0.56407552244E+02  0.56407552244E+02  0.00000000000E+00 0.  1.
         23    2    1    2    0    0  0.21089568148E+02 -0.56047460958E+02  0.42764946589E+03  0.44114905255E+03  0.90234877537E+02 0.  0.
         23    2    1    2    0    0 -0.21089568148E+02  0.56047460958E+02  0.88710045453E+01  0.10818652238E+03  0.89663488319E+02 0.  0.
          5    1    3    3  502    0  0.38644678302E+02 -0.30881671204E+02  0.38609945642E+03  0.38928391828E+03  0.47000000000E+01 0. -1.
         -5    1    3    3    0  502 -0.17555110154E+02 -0.25165789754E+02  0.41550009464E+02  0.51865134271E+02  0.47000000000E+01 0.  1.
          5    1    4    4  503    0  0.30437097209E+02  0.22077022729E+02 -0.16452474556E+02  0.41310842864E+02  0.47000000000E+01 0. -1.
         -5    1    4    4    0  503 -0.51526665357E+02  0.33970438229E+02  0.25323479102E+02  0.66875679511E+02  0.47000000000E+01 0.  1.
<mgrwt>
<rscale>  0 0.10817873E+03</rscale>
<asrwt>0</asrwt>
<pdfrwt beam="1">  1        2 0.75835078E-01 0.10829783E+03</pdfrwt>
<pdfrwt beam="2">  1       -2 0.86780853E-02 0.10829783E+03</pdfrwt>
<totfact> 0.50089691E+03</totfact>
</mgrwt>
</event>
<event>
 8    1  0.6836165E-004  0.1081539E+03  0.7546771E-02  0.1264236E+00
         -2   -1    0    0    0  501 -0.00000000000E+00  0.00000000000E+00  0.85411198952E+02  0.85411198952E+02  0.00000000000E+00 0.  1.
          2   -1    0    0  501    0  0.00000000000E+00 -0.00000000000E+00 -0.38542771829E+03  0.38542771829E+03  0.00000000000E+00 0. -1.
         23    2    1    2    0    0 -0.34214370647E+02  0.49882721240E+02  0.39333193615E+02  0.11467114239E+03  0.89126100215E+02 0.  0.
         23    2    1    2    0    0  0.34214370647E+02 -0.49882721240E+02 -0.33934971295E+03  0.35616777485E+03  0.89656829782E+02 0.  0.
          5    1    3    3  502    0 -0.37462009028E+02 -0.25530874517E+01 -0.13343892678E+02  0.40125675668E+02  0.47000000000E+01 0. -1.
         -5    1    4    4    0  503 -0.44920989594E+01 -0.43451364344E+02 -0.61838569718E+02  0.75857094073E+02  0.47000000000E+01 0.  1.
          5    1    4    4  503    0  0.38706469606E+02 -0.64313568965E+01 -0.27751114323E+03  0.28031068078E+03  0.47000000000E+01 0. -1.
         -5    1    3    3    0  502  0.32476383813E+01  0.52435808692E+02  0.52677086293E+02  0.74545466721E+02  0.47000000000E+01 0.  1.
<mgrwt>
<rscale>  0 0.10804380E+03</rscale>
<asrwt>0</asrwt>
<pdfrwt beam="1">  1        2 0.59296572E-01 0.10815385E+03</pdfrwt>
<pdfrwt beam="2">  1       -2 0.13140184E-01 0.10815385E+03</pdfrwt>
<totfact> 0.33945576E+03</totfact>
</mgrwt>
</event>
<event>
 8    1  0.6836165E-004  0.1325293E+03  0.7546771E-02  0.1224171E+00
          1   -1    0    0  501    0  0.00000000000E+00  0.00000000000E+00  0.27568988230E+02  0.27568988230E+02  0.00000000000E+00 0. -1.
         -1   -1    0    0    0  501 -0.00000000000E+00 -0.00000000000E+00 -0.80146064772E+03  0.80146064772E+03  0.00000000000E+00 0.  1.
         23    2    1    2    0    0 -0.67945899143E+02 -0.66058419647E+02 -0.57914222744E+03  0.59411256949E+03  0.92648073898E+02 0.  0.
         23    2    1    2    0    0  0.67945899143E+02  0.66058419647E+02 -0.19474943205E+03  0.23491706646E+03  0.90985310995E+02 0.  0.
          5    1    3    3  502    0  0.88841530678E+01 -0.51549115871E+02 -0.18764306781E+03  0.19485443392E+03  0.47000000000E+01 0. -1.
         -5    1    3    3    0  502 -0.76830052211E+02 -0.14509303776E+02 -0.39149915964E+03  0.39925813556E+03  0.47000000000E+01 0.  1.
          5    1    4    4  503    0  0.45265372910E+02 -0.13788155791E+01 -0.13304986931E+03  0.14062436788E+03  0.47000000000E+01 0. -1.
         -5    1    4    4    0  503  0.22680526233E+02  0.67437235226E+02 -0.61699562736E+02  0.94292698588E+02  0.47000000000E+01 0.  1.
<mgrwt>
<rscale>  0 0.13223913E+03</rscale>
<asrwt>0</asrwt>
<pdfrwt beam="1">  1        1 0.42413835E-02 0.13252934E+03</pdfrwt>
<pdfrwt beam="2">  1       -1 0.12330162E+00 0.13252934E+03</pdfrwt>
<totfact> 0.12687160E+03</totfact>
</mgrwt>
</event>
<event>
 8    1  0.6836165E-004  0.1009238E+03  0.7546771E-02  0.1279234E+00
          2   -1    0    0  501    0  0.00000000000E+00  0.00000000000E+00  0.41645297995E+03  0.41645297995E+03  0.00000000000E+00 0. -1.
         -2   -1    0    0    0  501 -0.00000000000E+00 -0.00000000000E+00 -0.24117607303E+02  0.24117607303E+02  0.00000000000E+00 0.  1.
         23    2    1    2    0    0  0.20849294492E+02  0.37709137625E+02  0.20876199779E+03  0.23187753623E+03  0.91263069996E+02 0.  0.
         23    2    1    2    0    0 -0.20849294492E+02 -0.37709137625E+02  0.18357337486E+03  0.20869305103E+03  0.89425574909E+02 0.  0.
          5    1    3    3  502    0  0.32365817367E+02 -0.95071913267E+01  0.15727135814E+03  0.16091706843E+03  0.47000000000E+01 0. -1.
         -5    1    3    3    0  502 -0.11516522875E+02  0.47216328952E+02  0.51490639652E+02  0.70960467801E+02  0.47000000000E+01 0.  1.
          5    1    4    4  503    0 -0.38212909833E+01  0.28118115087E+02  0.76921801314E+02  0.82123590875E+02  0.47000000000E+01 0. -1.
         -5    1    4    4    0  503 -0.17028003509E+02 -0.65827252712E+02  0.10665157355E+03  0.12656946015E+03  0.47000000000E+01 0.  1.
<mgrwt>
<rscale>  0 0.10050663E+03</rscale>
<asrwt>0</asrwt>
<pdfrwt beam="1">  1        2 0.64069684E-01 0.10092383E+03</pdfrwt>
<pdfrwt beam="2">  1       -2 0.37104014E-02 0.10092383E+03</pdfrwt>
<totfact> 0.21406702E+04</totfact>
</mgrwt>
</event>
<event>
 8    1  0.6836165E-004  0.9338396E+02  0.7546771E-02  0.1295712E+00
         -3   -1    0    0    0  501 -0.00000000000E+00  0.00000000000E+00  0.27359460798E+03  0.27359460798E+03  0.00000000000E+00 0.  1.
          3   -1    0    0  501    0  0.00000000000E+00 -0.00000000000E+00 -0.31411373467E+02  0.31411373467E+02  0.00000000000E+00 0. -1.
         23    2    1    2    0    0 -0.27009432058E+00  0.41640903016E+01  0.12535057085E+03  0.15543848974E+03  0.91820182322E+02 0.  0.
         23    2    1    2    0    0  0.27009432058E+00 -0.41640903016E+01  0.11683266366E+03  0.14956749170E+03  0.93290678406E+02 0.  0.
          5    1    3    3  502    0  0.32353512242E+02 -0.16213514794E+02  0.16791567364E+02  0.40170568217E+02  0.47000000000E+01 0. -1.
         -5    1    4    4    0  503 -0.35653768364E+02 -0.13193128122E+02  0.10275642230E+03  0.10966413339E+03  0.47000000000E+01 0.  1.
          5    1    4    4  503    0  0.35923862685E+02  0.90290378201E+01  0.14076241366E+02  0.39903358319E+02  0.47000000000E+01 0. -1.
         -5    1    3    3    0  502 -0.32623606562E+02  0.20377605095E+02  0.10855900349E+03  0.11526792153E+03  0.47000000000E+01 0.  1.
<mgrwt>
<rscale>  0 0.93014519E+02</rscale>
<asrwt>0</asrwt>
<pdfrwt beam="1">  1        3 0.48325192E-02 0.93383956E+02</pdfrwt>
<pdfrwt beam="2">  1       -3 0.42091477E-01 0.93383956E+02</pdfrwt>
<totfact> 0.28747069E+03</totfact>
</mgrwt>
</event>
<event>
 8    1  0.6836165E-004  0.1001611E+03  0.7546771E-02  0.1281765E+00
          2   -1    0    0  501    0  0.00000000000E+00  0.00000000000E+00  0.34427571087E+03  0.34427571087E+03  0.00000000000E+00 0. -1.
         -2   -1    0    0    0  501 -0.00000000000E+00 -0.00000000000E+00 -0.29307250817E+02  0.29307250817E+02  0.00000000000E+00 0.  1.
         23    2    1    2    0    0 -0.35095833367E+02 -0.19598537398E+01  0.19696074366E+03  0.22096556263E+03  0.93790654010E+02 0.  0.
         23    2    1    2    0    0  0.35095833367E+02  0.19598537398E+01  0.11800771639E+03  0.15261739906E+03  0.90170343349E+02 0.  0.
          5    1    4    4  502    0  0.63395879129E+02  0.75597897979E+01  0.98502499598E+02  0.11747774402E+03  0.47000000000E+01 0. -1.
         -5    1    4    4    0  502 -0.28300045762E+02 -0.55999360582E+01  0.19505216795E+02  0.35139655038E+02  0.47000000000E+01 0.  1.
          5    1    3    3  503    0  0.27365960503E+02  0.12270663897E+02  0.10121072549E+03  0.10566534882E+03  0.47000000000E+01 0. -1.
         -5    1    3    3    0  503 -0.62461793870E+02 -0.14230517637E+02  0.95750018164E+02  0.11530021381E+03  0.47000000000E+01 0.  1.
<mgrwt>
<rscale>  0 0.99304749E+02</rscale>
<asrwt>0</asrwt>
<pdfrwt beam="1">  1        2 0.52965491E-01 0.10016110E+03</pdfrwt>
<pdfrwt beam="2">  1       -2 0.45088081E-02 0.10016110E+03</pdfrwt>
<totfact> 0.19609093E+04</totfact>
</mgrwt>
</event>
<event>
 8    1  0.6836165E-004  0.1137414E+03  0.7546771E-02  0.1254568E+00
          2   -1    0    0  501    0  0.00000000000E+00  0.00000000000E+00  0.38963015761E+03  0.38963015761E+03  0.00000000000E+00 0. -1.
         -2   -1    0    0    0  501 -0.00000000000E+00 -0.00000000000E+00 -0.37425270288E+02  0.37425270288E+02  0.00000000000E+00 0.  1.
         23    2    1    2    0    0 -0.96308268065E+01 -0.66900406188E+02  0.10140823888E+03  0.15238351200E+03  0.91480526025E+02 0.  0.
         23    2    1    2    0    0  0.96308268065E+01  0.66900406188E+02  0.25079664844E+03  0.27467191591E+03  0.89315650048E+02 0.  0.
          5    1    3    3  502    0  0.38856232751E+02 -0.31308284707E+02  0.28167382517E+02  0.57493538356E+02  0.47000000000E+01 0. -1.
         -5    1    3    3    0  502 -0.48487059558E+02 -0.35592121482E+02  0.73240856365E+02  0.94889973639E+02  0.47000000000E+01 0.  1.
          5    1    4    4  503    0  0.47818952385E+02  0.50990790312E+02  0.16699597990E+03  0.18109792988E+03  0.47000000000E+01 0. -1.
         -5    1    4    4    0  503 -0.38188125578E+02  0.15909615876E+02  0.83800668543E+02  0.93573986025E+02  0.47000000000E+01 0.  1.
<mgrwt>
<rscale>  0 0.11330544E+03</rscale>
<asrwt>0</asrwt>
<pdfrwt beam="1">  1        2 0.59943098E-01 0.11374139E+03</pdfrwt>
<pdfrwt beam="2">  1       -2 0.57577341E-02 0.11374139E+03</pdfrwt>
<totfact> 0.12082865E+04</totfact>
</mgrwt>
</event>
<event>
 8    1  0.6836165E-004  0.1007645E+03  0.7546771E-02  0.1278921E+00
         -1   -1    0    0    0  501 -0.00000000000E+00  0.00000000000E+00  0.17213908148E+03  0.17213908148E+03  0.00000000000E+00 0.  1.
          1   -1    0    0  501    0  0.00000000000E+00 -0.00000000000E+00 -0.64316672086E+02  0.64316672086E+02  0.00000000000E+00 0. -1.
         23    2    1    2    0    0  0.20676582646E+02  0.35135673917E+02  0.88851784966E+02  0.13434333828E+03  0.92149097653E+02 0.  0.
         23    2    1    2    0    0 -0.20676582646E+02 -0.35135673917E+02  0.18970624432E+02  0.10211241529E+03  0.91678918583E+02 0.  0.
          5    1    3    3  502    0  0.34227646684E+02 -0.14860086396E+02  0.83890323163E+01  0.38533359943E+02  0.47000000000E+01 0. -1.
         -5    1    4    4    0  503  0.21434127923E+01  0.26743341925E+02 -0.11179540834E+02  0.29442701794E+02  0.47000000000E+01 0.  1.
          5    1    4    4  503    0 -0.22819995438E+02 -0.61879015842E+02  0.30150165266E+02  0.72669713491E+02  0.47000000000E+01 0. -1.
         -5    1    3    3    0  502 -0.13551064039E+02  0.49995760313E+02  0.80462752650E+02  0.95809978342E+02  0.47000000000E+01 0.  1.
<mgrwt>
<rscale>  0 0.10065692E+03</rscale>
<asrwt>0</asrwt>
<pdfrwt beam="1">  1        1 0.98948727E-02 0.10076454E+03</pdfrwt>
<pdfrwt beam="2">  1       -1 0.26482935E-01 0.10076454E+03</pdfrwt>
<totfact> 0.75836162E+03</totfact>
</mgrwt>
</event>
<event>
 8    1  0.6836165E-004  0.1358401E+03  0.7546771E-02  0.1219072E+00
          1   -1    0    0  501    0  0.00000000000E+00  0.00000000000E+00  0.35965453707E+02  0.35965453707E+02  0.00000000000E+00 0. -1.
         -1   -1    0    0    0  501 -0.00000000000E+00 -0.00000000000E+00 -0.64064654498E+03  0.64064654498E+03  0.00000000000E+00 0.  1.
         23    2    1    2    0    0  0.97553220441E+02  0.26491750495E+02 -0.45344114729E+03  0.47332390900E+03  0.90599145220E+02 0.  0.
         23    2    1    2    0    0 -0.97553220441E+02 -0.26491750495E+02 -0.15123994399E+03  0.20328808969E+03  0.90741848614E+02 0.  0.
          5    1    3    3  502    0  0.41837284765E+02  0.12559854113E+02 -0.53383134888E+02  0.69137236149E+02  0.47000000000E+01 0. -1.
         -5    1    3    3    0  502  0.55715935676E+02  0.13931896382E+02 -0.40005801240E+03  0.40418667285E+03  0.47000000000E+01 0.  1.
          5    1    4    4  503    0 -0.98208551917E+02 -0.49140945160E+02 -0.10719325615E+03  0.15353252530E+03  0.47000000000E+01 0. -1.
         -5    1    4    4    0  503  0.65533147577E+00  0.22649194666E+02 -0.44046687838E+02  0.49755564391E+02  0.47000000000E+01 0.  1.
<mgrwt>
<rscale>  0 0.13581625E+03</rscale>
<asrwt>0</asrwt>
<pdfrwt beam="1">  1        1 0.55331470E-02 0.13584008E+03</pdfrwt>
<pdfrwt beam="2">  1       -1 0.98561002E-01 0.13584008E+03</pdfrwt>
<totfact> 0.14701452E+03</totfact>
</mgrwt>
</event>
<event>
 8    1  0.6836165E-004  0.1340544E+03  0.7546771E-02  0.1221929E+00
         -1   -1    0    0    0  501 -0.00000000000E+00  0.00000000000E+00  0.23238485499E+02  0.23238485499E+02  0.00000000000E+00 0.  1.
          1   -1    0    0  501    0  0.00000000000E+00 -0.00000000000E+00 -0.90852537509E+03  0.90852537509E+03  0.00000000000E+00 0. -1.
         23    2    1    2    0    0  0.67931041576E+02  0.70760170021E+02 -0.25757022753E+03  0.28989253363E+03  0.89853385437E+02 0.  0.
         23    2    1    2    0    0 -0.67931041576E+02 -0.70760170021E+02 -0.62771666206E+03  0.64187132696E+03  0.91372668071E+02 0.  0.
          5    1    3    3  502    0 -0.21254289314E+02  0.18313746807E+02 -0.71294027987E+02  0.76759797830E+02  0.47000000000E+01 0. -1.
         -5    1    4    4    0  503 -0.81811941313E+02 -0.28818694518E+02 -0.47262683060E+03  0.48054336111E+03  0.47000000000E+01 0. -1.
          5    1    4    4  503    0  0.13880899737E+02 -0.41941475503E+02 -0.15508983146E+03  0.16132796585E+03  0.47000000000E+01 0.  1.
         -5    1    3    3    0  502  0.89185330890E+02  0.52446423214E+02 -0.18627619954E+03  0.21313273580E+03  0.47000000000E+01 0.  1.
<mgrwt>
<rscale>  0 0.13379596E+03</rscale>
<asrwt>0</asrwt>
<pdfrwt beam="1">  1        1 0.13977310E+00 0.13405444E+03</pdfrwt>
<pdfrwt beam="2">  1       -1 0.35751525E-02 0.13405444E+03</pdfrwt>
<totfact> 0.53176881E+03</totfact>
</mgrwt>
</event>
<event>
 8    1  0.6836165E-004  0.9194544E+02  0.7546771E-02  0.1299632E+00
          1   -1    0    0  501    0  0.00000000000E+00  0.00000000000E+00  0.60596326096E+03  0.60596326096E+03  0.00000000000E+00 0. -1.
         -1   -1    0    0    0  501 -0.00000000000E+00 -0.00000000000E+00 -0.40007216196E+02  0.40007216196E+02  0.00000000000E+00 0.  1.
         23    2    1    2    0    0  0.26853631323E+01 -0.12871554048E+01  0.19273520179E+02  0.91609812725E+02  0.89509894778E+02 0.  0.
         23    2    1    2    0    0 -0.26853631323E+01  0.12871554048E+01  0.54668252459E+03  0.55436066443E+03  0.91897201465E+02 0.  0.
          5    1    4    4  502    0 -0.44404291212E+02  0.11718478151E+02  0.34617860634E+03  0.34924315498E+03  0.47000000000E+01 0. -1.
         -5    1    3    3    0  503  0.37696722344E+02 -0.10978798688E+02 -0.14173118152E+02  0.42006477766E+02  0.47000000000E+01 0.  1.
          5    1    3    3  503    0 -0.35011359212E+02  0.96916432829E+01  0.33446638331E+02  0.49603334959E+02  0.47000000000E+01 0. -1.
         -5    1    4    4    0  502  0.41718928079E+02 -0.10431322746E+02  0.20050391824E+03  0.20511750945E+03  0.47000000000E+01 0.  1.
<mgrwt>
<rscale>  0 0.91343039E+02</rscale>
<asrwt>0</asrwt>
<pdfrwt beam="1">  1        1 0.93225110E-01 0.91945438E+02</pdfrwt>
<pdfrwt beam="2">  1       -1 0.61549568E-02 0.91945438E+02</pdfrwt>
<totfact> 0.42408696E+03</totfact>
</mgrwt>
</event>
<event>
 8    1  0.6836165E-004  0.9789382E+02  0.7546771E-02  0.1287912E+00
         -1   -1    0    0    0  501 -0.00000000000E+00  0.00000000000E+00  0.30363914947E+03  0.30363914947E+03  0.00000000000E+00 0.  1.
          1   -1    0    0  501    0  0.00000000000E+00 -0.00000000000E+00 -0.30516121832E+02  0.30516121832E+02  0.00000000000E+00 0. -1.
         23    2    1    2    0    0  0.17524136951E+02 -0.89652894454E+01  0.15851903213E+03  0.18343276022E+03  0.90176616607E+02 0.  0.
         23    2    1    2    0    0 -0.17524136951E+02  0.89652894454E+01  0.11460399551E+03  0.15072251108E+03  0.95894357346E+02 0.  0.
          5    1    4    4  502    0 -0.38327482109E+02 -0.26195062240E+02  0.26909206477E+02  0.53864390499E+02  0.47000000000E+01 0. -1.
         -5    1    4    4    0  502  0.20803345158E+02  0.35160351686E+02  0.87694789029E+02  0.96858120585E+02  0.47000000000E+01 0.  1.
          5    1    3    3  503    0  0.43151005709E+02 -0.34768202772E+02  0.93806625160E+02  0.10905324453E+03  0.47000000000E+01 0. -1.
         -5    1    3    3    0  503 -0.25626868759E+02  0.25802913327E+02  0.64712406971E+02  0.74379515692E+02  0.47000000000E+01 0.  1.
<mgrwt>
<rscale>  0 0.96464363E+02</rscale>
<asrwt>0</asrwt>
<pdfrwt beam="1">  1        1 0.46947882E-02 0.97893818E+02</pdfrwt>
<pdfrwt beam="2">  1       -1 0.46713713E-01 0.97893818E+02</pdfrwt>
<totfact> 0.77822238E+03</totfact>
</mgrwt>
</event>
<event>
 8    1  0.6836165E-004  0.1068936E+03  0.7546771E-02  0.1268503E+00
          1   -1    0    0  501    0  0.00000000000E+00  0.00000000000E+00  0.30453577707E+02  0.30453577707E+02  0.00000000000E+00 0. -1.
         -1   -1    0    0    0  501 -0.00000000000E+00 -0.00000000000E+00 -0.36257053381E+03  0.36257053381E+03  0.00000000000E+00 0.  1.
         23    2    1    2    0    0 -0.43254080029E+02 -0.11545624565E+02 -0.15477235268E+03  0.18809765012E+03  0.97067131103E+02 0.  0.
         23    2    1    2    0    0  0.43254080029E+02  0.11545624565E+02 -0.17734460343E+03  0.20492646140E+03  0.92409573812E+02 0.  0.
          5    1    4    4  502    0 -0.13535550831E+02  0.15110204569E+02 -0.12733489453E+03  0.12902633368E+03  0.47000000000E+01 0. -1.
         -5    1    4    4    0  502  0.56789630860E+02 -0.35645800036E+01 -0.50009708895E+02  0.75900127718E+02  0.47000000000E+01 0.  1.
          5    1    3    3  503    0 -0.73240959863E+02 -0.15351536539E+02 -0.95705350792E+02  0.12157924184E+03  0.47000000000E+01 0. -1.
         -5    1    3    3    0  503  0.29986879834E+02  0.38059119739E+01 -0.59067001888E+02  0.66518408281E+02  0.47000000000E+01 0.  1.
<mgrwt>
<rscale>  0 0.10582498E+03</rscale>
<asrwt>0</asrwt>
<pdfrwt beam="1">  1        1 0.46851662E-02 0.10689361E+03</pdfrwt>
<pdfrwt beam="2">  1       -1 0.55780077E-01 0.10689361E+03</pdfrwt>
<totfact> 0.56934364E+03</totfact>
</mgrwt>
</event>
<event>
 8    1  0.6836165E-004  0.1145101E+03  0.7546771E-02  0.1253135E+00
          1   -1    0    0  501    0  0.00000000000E+00  0.00000000000E+00  0.54900236653E+02  0.54900236653E+02  0.00000000000E+00 0. -1.
         -1   -1    0    0    0  501 -0.00000000000E+00 -0.00000000000E+00 -0.23855488325E+03  0.23855488325E+03  0.00000000000E+00 0.  1.
         23    2    1    2    0    0 -0.52124989589E+02 -0.45866152380E+02 -0.10761748424E+03  0.15599890476E+03  0.89069730548E+02 0.  0.
         23    2    1    2    0    0  0.52124989589E+02  0.45866152380E+02 -0.76037162357E+02  0.13745621514E+03  0.91059554945E+02 0.  0.
          5    1    3    3  502    0  0.18954952181E+02 -0.12026866601E+02 -0.44834447805E+00  0.22939632629E+02  0.47000000000E+01 0. -1.
         -5    1    4    4    0  503 -0.22224218215E+02 -0.88702442957E-01 -0.32615547572E+02  0.39746543080E+02  0.47000000000E+01 0.  1.
          5    1    4    4  503    0  0.74349207804E+02  0.45954854823E+02 -0.43421614785E+02  0.97709672057E+02  0.47000000000E+01 0. -1.
         -5    1    3    3    0  502 -0.71079941770E+02 -0.33839285780E+02 -0.10716913976E+03  0.13305927213E+03  0.47000000000E+01 0.  1.
<mgrwt>
<rscale>  0 0.11411407E+03</rscale>
<asrwt>0</asrwt>
<pdfrwt beam="1">  1        1 0.84461902E-02 0.11451009E+03</pdfrwt>
<pdfrwt beam="2">  1       -1 0.36700751E-01 0.11451009E+03</pdfrwt>
<totfact> 0.54615364E+03</totfact>
</mgrwt>
</event>
<event>
 8    1  0.6836165E-004  0.1824555E+03  0.7546771E-02  0.1165467E+00
          2   -1    0    0  501    0  0.00000000000E+00  0.00000000000E+00  0.56604856190E+03  0.56604856190E+03  0.00000000000E+00 0. -1.
         -2   -1    0    0    0  501 -0.00000000000E+00 -0.00000000000E+00 -0.58805796309E+02  0.58805796309E+02  0.00000000000E+00 0.  1.
         23    2    1    2    0    0  0.15319286050E+03 -0.37758525083E+02  0.24760967819E+03  0.30752274937E+03  0.91465457546E+02 0.  0.
         23    2    1    2    0    0 -0.15319286050E+03  0.37758525083E+02  0.25963308741E+03  0.31733160884E+03  0.91631060071E+02 0.  0.
          5    1    3    3  502    0  0.12076792597E+03 -0.20725098517E+01  0.11703710663E+03  0.16825267180E+03  0.47000000000E+01 0. -1.
         -5    1    4    4    0  503 -0.41277361893E+02  0.10847743778E+02  0.15792212443E+03  0.16365506877E+03  0.47000000000E+01 0.  1.
          5    1    4    4  503    0 -0.11191549861E+03  0.26910781305E+02  0.10171096298E+03  0.15367654007E+03  0.47000000000E+01 0. -1.
         -5    1    3    3    0  502  0.32424934525E+02 -0.35686015231E+02  0.13057257156E+03  0.13927007757E+03  0.47000000000E+01 0.  1.
<mgrwt>
<rscale>  0 0.18243472E+03</rscale>
<asrwt>0</asrwt>
<pdfrwt beam="1">  1        2 0.87084390E-01 0.18245550E+03</pdfrwt>
<pdfrwt beam="2">  1       -2 0.90470460E-02 0.18245550E+03</pdfrwt>
<totfact> 0.41276413E+03</totfact>
</mgrwt>
</event>
<event>
 8    1  0.6836165E-004  0.9986454E+02  0.7546771E-02  0.1281033E+00
          2   -1    0    0  501    0  0.00000000000E+00  0.00000000000E+00  0.63213950195E+03  0.63213950195E+03  0.00000000000E+00 0. -1.
         -2   -1    0    0    0  501 -0.00000000000E+00 -0.00000000000E+00 -0.21824952676E+02  0.21824952676E+02  0.00000000000E+00 0.  1.
         23    2    1    2    0    0 -0.24103302172E+02  0.34851207308E+02  0.13017608465E+03  0.16355047388E+03  0.89483901708E+02 0.  0.
         23    2    1    2    0    0  0.24103302172E+02 -0.34851207308E+02  0.48013846463E+03  0.49041398075E+03  0.90428709343E+02 0.  0.
          5    1    4    4  502    0  0.37979460979E+02  0.15445885788E+02  0.13042183416E+03  0.13679532035E+03  0.47000000000E+01 0. -1.
         -5    1    3    3    0  503 -0.13693791597E+01  0.62298667036E+02  0.73989180230E+02  0.96847756323E+02  0.47000000000E+01 0.  1.
          5    1    3    3  503    0 -0.22733923013E+02 -0.27447459728E+02  0.56186904416E+02  0.66702717553E+02  0.47000000000E+01 0. -1.
         -5    1    4    4    0  502 -0.13876158807E+02 -0.50297093096E+02  0.34971663047E+03  0.35361866040E+03  0.47000000000E+01 0.  1.
<mgrwt>
<rscale>  0 0.99650174E+02</rscale>
<asrwt>0</asrwt>
<pdfrwt beam="1">  1        2 0.97252217E-01 0.99864545E+02</pdfrwt>
<pdfrwt beam="2">  1       -2 0.33576855E-02 0.99864545E+02</pdfrwt>
<totfact> 0.15692714E+04</totfact>
</mgrwt>
</event>
<event>
 8    1  0.6836165E-004  0.1060986E+03  0.7546771E-02  0.1270333E+00
          1   -1    0    0  501    0  0.00000000000E+00  0.00000000000E+00  0.43834565984E+03  0.43834565984E+03  0.00000000000E+00 0. -1.
         -1   -1    0    0    0  501 -0.00000000000E+00 -0.00000000000E+00 -0.28348929482E+02  0.28348929482E+02  0.00000000000E+00 0.  1.
         23    2    1    2    0    0 -0.11637718176E+02  0.37072087838E+02  0.11547748268E+03  0.15364747997E+03  0.93609416790E+02 0.  0.
         23    2    1    2    0    0  0.11637718176E+02 -0.37072087838E+02  0.29451924768E+03  0.31304710936E+03  0.98727550588E+02 0.  0.
          5    1    4    4  502    0 -0.16971570697E+02  0.15321169402E+02  0.19862935575E+03  0.19999620849E+03  0.47000000000E+01 0.  1.
         -5    1    4    4    0  502  0.28609288873E+02 -0.52393257240E+02  0.95889891923E+02  0.11305090087E+03  0.47000000000E+01 0. -1.
          5    1    3    3  503    0  0.13478668651E+02 -0.19649112016E+02  0.76433196433E+02  0.80199037579E+02  0.47000000000E+01 0. -1.
         -5    1    3    3    0  503 -0.25116386827E+02  0.56721199854E+02  0.39044286251E+02  0.73448442387E+02  0.47000000000E+01 0.  1.
<mgrwt>
<rscale>  0 0.10489183E+03</rscale>
<asrwt>0</asrwt>
<pdfrwt beam="1">  1        1 0.67437789E-01 0.10609856E+03</pdfrwt>
<pdfrwt beam="2">  1       -1 0.43613741E-02 0.10609856E+03</pdfrwt>
<totfact> 0.10815873E+04</totfact>
</mgrwt>
</event>
<event>
 7    1  0.6836165E-004  0.2593517E+03  0.7546771E-02  0.1133881E+00
          2   -1    0    0  501    0  0.00000000000E+00  0.00000000000E+00  0.48566208478E+03  0.48566208478E+03  0.00000000000E+00 0. -1.
         -2   -1    0    0    0  501 -0.00000000000E+00 -0.00000000000E+00 -0.13714684748E+03  0.13714684748E+03  0.00000000000E+00 0.  1.
         23    2    1    2    0    0  0.94580661837E+02 -0.55400750213E+02  0.33748591804E+03  0.36322283724E+03  0.77584405028E+02 0.  0.
          5    1    1    2  502    0 -0.23656477321E+01  0.62971108028E+02 -0.97940653809E+02  0.11655650305E+03  0.47000000000E+01 0. -1.
         -5    1    3    3    0  503  0.63171707161E+01 -0.19856324365E+02  0.12919570169E+02  0.24963684754E+02  0.47000000000E+01 0.  1.
          5    1    3    3  503    0  0.88263491121E+02 -0.35544425848E+02  0.32456634787E+03  0.33825915249E+03  0.47000000000E+01 0. -1.
         -5    1    1    2    0  502 -0.92215014105E+02 -0.75703578149E+01  0.10896997307E+03  0.14302959196E+03  0.47000000000E+01 0.  1.
<mgrwt>
<rscale>  0 0.22000298E+03</rscale>
<asrwt>0</asrwt>
<pdfrwt beam="1">  1        2 0.74717243E-01 0.25935168E+03</pdfrwt>
<pdfrwt beam="2">  1       -2 0.21099515E-01 0.25935168E+03</pdfrwt>
<totfact> 0.12326818E+03</totfact>
</mgrwt>
</event>
<event>
 8    1  0.6836165E-004  0.9571460E+02  0.7546771E-02  0.1289762E+00
          1   -1    0    0  501    0  0.00000000000E+00  0.00000000000E+00  0.10998760431E+03  0.10998760431E+03  0.00000000000E+00 0. -1.
         -1   -1    0    0    0  501 -0.00000000000E+00 -0.00000000000E+00 -0.92806153488E+02  0.92806153488E+02  0.00000000000E+00 0.  1.
         23    2    1    2    0    0  0.32782086046E+02  0.44175377841E+01 -0.24379629133E+02  0.98445267324E+02  0.89459066261E+02 0.  0.
         23    2    1    2    0    0 -0.32782086046E+02 -0.44175377841E+01  0.41561079951E+02  0.10434849047E+03  0.89817060134E+02 0.  0.
          5    1    4    4  502    0 -0.53626443718E+02  0.24647802368E+02  0.20966060728E+02  0.62809038600E+02  0.47000000000E+01 0. -1.
         -5    1    4    4    0  502  0.20844357672E+02 -0.29065340152E+02  0.20595019223E+02  0.41539451870E+02  0.47000000000E+01 0.  1.
          5    1    3    3  503    0  0.57108758653E+00  0.43835894731E+02 -0.14188034716E+02  0.46317406415E+02  0.47000000000E+01 0. -1.
         -5    1    3    3    0  503  0.32210998459E+02 -0.39418356947E+02 -0.10191594417E+02  0.52127860909E+02  0.47000000000E+01 0.  1.
<mgrwt>
<rscale>  0 0.95630523E+02</rscale>
<asrwt>0</asrwt>
<pdfrwt beam="1">  1        1 0.16921170E-01 0.95714597E+02</pdfrwt>
<pdfrwt beam="2">  1       -1 0.14277870E-01 0.95714597E+02</pdfrwt>
<totfact> 0.10070487E+04</totfact>
</mgrwt>
</event>
<event>
 8    1  0.6836165E-004  0.9775777E+02  0.7546771E-02  0.1285434E+00
          2   -1    0    0  501    0  0.00000000000E+00  0.00000000000E+00  0.34361488939E+03  0.34361488939E+03  0.00000000000E+00 0. -1.
         -2   -1    0    0    0  501 -0.00000000000E+00 -0.00000000000E+00 -0.34684530782E+02  0.34684530782E+02  0.00000000000E+00 0.  1.
         23    2    1    2    0    0  0.19481097249E+01 -0.35976006500E+02  0.69559807117E+02  0.11997978578E+03  0.90876366865E+02 0.  0.
         23    2    1    2    0    0 -0.19481097249E+01  0.35976006500E+02  0.23937055149E+03  0.25831963439E+03  0.90181508168E+02 0.  0.
          5    1    3    3  502    0 -0.29125990311E+02  0.14125889185E+02  0.61754374746E+01  0.33287987096E+02  0.47000000000E+01 0. -1.
         -5    1    3    3    0  502  0.31074100036E+02 -0.50101895685E+02  0.63384369643E+02  0.86691798685E+02  0.47000000000E+01 0.  1.
          5    1    4    4  503    0 -0.65566934253E+01  0.63265800884E+02  0.12230616896E+03  0.13793636488E+03  0.47000000000E+01 0. -1.
         -5    1    4    4    0  503  0.46085837004E+01 -0.27289794384E+02  0.11706438253E+03  0.12038326951E+03  0.47000000000E+01 0.  1.
<mgrwt>
<rscale>  0 0.97595970E+02</rscale>
<asrwt>0</asrwt>
<pdfrwt beam="1">  1        2 0.52863827E-01 0.97757773E+02</pdfrwt>
<pdfrwt beam="2">  1       -2 0.53360819E-02 0.97757773E+02</pdfrwt>
<totfact> 0.15257028E+04</totfact>
</mgrwt>
</event>
<event>
 8    1  0.6836165E-004  0.9355023E+02  0.7546771E-02  0.1296097E+00
         -1   -1    0    0    0  501 -0.00000000000E+00  0.00000000000E+00  0.70891244993E+02  0.70891244993E+02  0.00000000000E+00 0.  1.
          1   -1    0    0  501    0  0.00000000000E+00 -0.00000000000E+00 -0.11998366906E+03  0.11998366906E+03  0.00000000000E+00 0. -1.
         23    2    1    2    0    0 -0.31841869847E+01  0.54276868901E+01 -0.28496133125E+02  0.97794046619E+02  0.93338347529E+02 0.  0.
         23    2    1    2    0    0  0.31841869847E+01 -0.54276868901E+01 -0.20596290946E+02  0.93080867438E+02  0.90555186768E+02 0.  0.
          5    1    3    3  502    0 -0.10962512628E+02  0.47455681654E+02 -0.60960460189E+01  0.49309939986E+02  0.47000000000E+01 0. -1.
         -5    1    3    3    0  502  0.77783256428E+01 -0.42027994764E+02 -0.22400087106E+02  0.48484106633E+02  0.47000000000E+01 0.  1.
          5    1    4    4  503    0 -0.25287919470E+02  0.30591633498E+02 -0.24306616095E+02  0.46778504649E+02  0.47000000000E+01 0. -1.
         -5    1    4    4    0  503  0.28472106454E+02 -0.36019320388E+02  0.37103251490E+01  0.46302362789E+02  0.47000000000E+01 0.  1.
<mgrwt>
<rscale>  0 0.92848203E+02</rscale>
<asrwt>0</asrwt>
<pdfrwt beam="1">  1        1 0.18459026E-01 0.93550232E+02</pdfrwt>
<pdfrwt beam="2">  1       -1 0.10906346E-01 0.93550232E+02</pdfrwt>
<totfact> 0.13598210E+04</totfact>
</mgrwt>
</event>
<event>
 8    1  0.6836165E-004  0.1105485E+03  0.7546771E-02  0.1260117E+00
         -1   -1    0    0    0  501 -0.00000000000E+00  0.00000000000E+00  0.35866048663E+03  0.35866048663E+03  0.00000000000E+00 0.  1.
          1   -1    0    0  501    0  0.00000000000E+00 -0.00000000000E+00 -0.37385228652E+02  0.37385228652E+02  0.00000000000E+00 0. -1.
         23    2    1    2    0    0 -0.63845187977E+01  0.45504765997E+02  0.22358343281E+03  0.24942035082E+03  0.10054607983E+03 0.  0.
         23    2    1    2    0    0  0.63845187977E+01 -0.45504765997E+02  0.97691825169E+02  0.14662536446E+03  0.99216223414E+02 0.  0.
          5    1    3    3  502    0 -0.20770506485E+01 -0.31638623577E+02  0.50456608869E+02  0.59776885331E+02  0.47000000000E+01 0. -1.
         -5    1    4    4    0  503  0.36534413828E+02 -0.10400389503E+02  0.92150971892E+02  0.99783882046E+02  0.47000000000E+01 0.  1.
          5    1    4    4  503    0 -0.30149895031E+02 -0.35104376494E+02  0.55408532768E+01  0.46841482411E+02  0.47000000000E+01 0. -1.
         -5    1    3    3    0  502 -0.43074681492E+01  0.77143389574E+02  0.17312682394E+03  0.18964346549E+03  0.47000000000E+01 0.  1.
<mgrwt>
<rscale>  0 0.11024517E+03</rscale>
<asrwt>0</asrwt>
<pdfrwt beam="1">  1        1 0.57515739E-02 0.11054845E+03</pdfrwt>
<pdfrwt beam="2">  1       -1 0.55178534E-01 0.11054845E+03</pdfrwt>
<totfact> 0.44099932E+03</totfact>
</mgrwt>
</event>
<event>
 8    1  0.6836165E-004  0.1005355E+03  0.7546771E-02  0.1280833E+00
          2   -1    0    0  501    0  0.00000000000E+00  0.00000000000E+00  0.37256956459E+03  0.37256956459E+03  0.00000000000E+00 0. -1.
         -2   -1    0    0    0  501 -0.00000000000E+00 -0.00000000000E+00 -0.28175329846E+02  0.28175329846E+02  0.00000000000E+00 0.  1.
         23    2    1    2    0    0  0.30478530846E+02  0.33851666158E+01  0.11786414557E+03  0.15290769982E+03  0.92457599247E+02 0.  0.
         23    2    1    2    0    0 -0.30478530846E+02 -0.33851666158E+01  0.22653008918E+03  0.24783719462E+03  0.95744417787E+02 0.  0.
          5    1    4    4  502    0  0.17582564390E+02 -0.36933891114E+02  0.80652507355E+02  0.90554822213E+02  0.47000000000E+01 0. -1.
         -5    1    4    4    0  502 -0.48061095236E+02  0.33548724498E+02  0.14587758182E+03  0.15728237240E+03  0.47000000000E+01 0.  1.
          5    1    3    3  503    0  0.24462994085E+02 -0.31601354061E+02  0.13297277462E+02  0.42379136919E+02  0.47000000000E+01 0. -1.
         -5    1    3    3    0  503  0.60155367614E+01  0.34986520677E+02  0.10456686811E+03  0.11052856290E+03  0.47000000000E+01 0.  1.
<mgrwt>
<rscale>  0 0.99745004E+02</rscale>
<asrwt>0</asrwt>
<pdfrwt beam="1">  1        2 0.57318391E-01 0.10053553E+03</pdfrwt>
<pdfrwt beam="2">  1       -2 0.43346664E-02 0.10053553E+03</pdfrwt>
<totfact> 0.19136523E+04</totfact>
</mgrwt>
</event>
<event>
 8    1  0.6836165E-004  0.9380649E+02  0.7546771E-02  0.1294752E+00
          2   -1    0    0  501    0  0.00000000000E+00  0.00000000000E+00  0.17976930851E+03  0.17976930851E+03  0.00000000000E+00 0. -1.
         -2   -1    0    0    0  501 -0.00000000000E+00 -0.00000000000E+00 -0.48389804150E+02  0.48389804150E+02  0.00000000000E+00 0.  1.
         23    2    1    2    0    0 -0.13403766191E+02 -0.24618196107E+02  0.73877417048E+02  0.11940490268E+03  0.89520620569E+02 0.  0.
         23    2    1    2    0    0  0.13403766191E+02  0.24618196107E+02  0.57502087311E+02  0.10875420998E+03  0.87950392922E+02 0.  0.
          5    1    4    4  502    0  0.20958269764E+02 -0.59113341452E+01  0.70847772392E+02  0.74267690120E+02  0.47000000000E+01 0. -1.
         -5    1    3    3    0  503  0.12847360076E+02  0.29637538753E+02  0.33062845843E+02  0.46461598547E+02  0.47000000000E+01 0.  1.
          5    1    3    3  503    0 -0.26251126267E+02 -0.54255734860E+02  0.40814571205E+02  0.72943304135E+02  0.47000000000E+01 0. -1.
         -5    1    4    4    0  502 -0.75545035736E+01  0.30529530252E+02 -0.13345685080E+02  0.34486519858E+02  0.47000000000E+01 0.  1.
<mgrwt>
<rscale>  0 0.93429907E+02</rscale>
<asrwt>0</asrwt>
<pdfrwt beam="1">  1        2 0.27656816E-01 0.93806492E+02</pdfrwt>
<pdfrwt beam="2">  1       -2 0.74445854E-02 0.93806492E+02</pdfrwt>
<totfact> 0.18239635E+04</totfact>
</mgrwt>
</event>
<event>
 8    1  0.6836165E-004  0.9197319E+02  0.7546771E-02  0.1299954E+00
          1   -1    0    0  501    0  0.00000000000E+00  0.00000000000E+00  0.77549117799E+02  0.77549117799E+02  0.00000000000E+00 0. -1.
         -1   -1    0    0    0  501 -0.00000000000E+00 -0.00000000000E+00 -0.17668696280E+03  0.17668696280E+03  0.00000000000E+00 0.  1.
         23    2    1    2    0    0  0.11013645791E+02  0.79065786545E+01  0.31593924131E+02  0.94392835128E+02  0.87909140037E+02 0.  0.
         23    2    1    2    0    0 -0.11013645791E+02 -0.79065786545E+01 -0.13073176913E+03  0.15984324547E+03  0.90968419149E+02 0.  0.
          5    1    3    3  502    0  0.16355240806E+02  0.39683177565E+02  0.41971488689E+02  0.60215814752E+02  0.47000000000E+01 0. -1.
         -5    1    4    4    0  503 -0.37577602171E+02 -0.15728604038E+02 -0.12449067856E+03  0.13107053147E+03  0.47000000000E+01 0.  1.
          5    1    4    4  503    0  0.26563956380E+02  0.78220253836E+01 -0.62410905691E+01  0.28772714004E+02  0.47000000000E+01 0. -1.
         -5    1    3    3    0  502 -0.53415950159E+01 -0.31776598910E+02 -0.10377564559E+02  0.34177020376E+02  0.47000000000E+01 0.  1.
<mgrwt>
<rscale>  0 0.91207503E+02</rscale>
<asrwt>0</asrwt>
<pdfrwt beam="1">  1        1 0.11930634E-01 0.91973190E+02</pdfrwt>
<pdfrwt beam="2">  1       -1 0.27182609E-01 0.91973190E+02</pdfrwt>
<totfact> 0.56487467E+03</totfact>
</mgrwt>
</event>
<event>
 8    1  0.6836165E-004  0.1083936E+03  0.7546771E-02  0.1268902E+00
          1   -1    0    0  501    0  0.00000000000E+00  0.00000000000E+00  0.47223325454E+03  0.47223325454E+03  0.00000000000E+00 0. -1.
         -1   -1    0    0    0  501 -0.00000000000E+00 -0.00000000000E+00 -0.37035387205E+02  0.37035387205E+02  0.00000000000E+00 0.  1.
         23    2    1    2    0    0  0.37610763293E+02  0.10021831234E+02  0.38388955999E+03  0.39889893374E+03  0.10116401757E+03 0.  0.
         23    2    1    2    0    0 -0.37610763293E+02 -0.10021831234E+02  0.51308307341E+02  0.11036970801E+03  0.89632156206E+02 0.  0.
          5    1    4    4  502    0 -0.63030438008E+02  0.83587557356E+01  0.22763406681E+02  0.67697618841E+02  0.47000000000E+01 0. -1.
         -5    1    4    4    0  502  0.25419674715E+02 -0.18380586969E+02  0.28544900660E+02  0.42672089164E+02  0.47000000000E+01 0.  1.
          5    1    3    3  503    0  0.12233544176E+02 -0.38151621273E+02  0.74507885997E+02  0.84727332571E+02  0.47000000000E+01 0. -1.
         -5    1    3    3    0  503  0.25377219117E+02  0.48173452506E+02  0.30938167399E+03  0.31417160117E+03  0.47000000000E+01 0.  1.
<mgrwt>
<rscale>  0 0.10562020E+03</rscale>
<asrwt>0</asrwt>
<pdfrwt beam="1">  1        1 0.72651266E-01 0.10839357E+03</pdfrwt>
<pdfrwt beam="2">  1       -1 0.56977522E-02 0.10839357E+03</pdfrwt>
<totfact> 0.66525007E+03</totfact>
</mgrwt>
</event>
<event>
 8    1  0.6836165E-004  0.1340960E+03  0.7546771E-02  0.1221670E+00
         -1   -1    0    0    0  501 -0.00000000000E+00  0.00000000000E+00  0.19065593305E+02  0.19065593305E+02  0.00000000000E+00 0.  1.
          1   -1    0    0  501    0  0.00000000000E+00 -0.00000000000E+00 -0.96574532427E+03  0.96574532427E+03  0.00000000000E+00 0. -1.
         23    2    1    2    0    0 -0.98034042463E+02  0.32536689741E-01 -0.39350338225E+03  0.41572423648E+03  0.91493466536E+02 0.  0.
         23    2    1    2    0    0  0.98034042463E+02 -0.32536689741E-01 -0.55317634872E+03  0.56908668109E+03  0.90801449744E+02 0.  0.
          5    1    3    3  502    0 -0.30160153261E+02  0.19770530491E+02 -0.27697172256E+03  0.27934912532E+03  0.47000000000E+01 0. -1.
         -5    1    3    3    0  502 -0.67873889202E+02 -0.19737993801E+02 -0.11653165969E+03  0.13637511117E+03  0.47000000000E+01 0.  1.
          5    1    4    4  503    0  0.44949704245E+02 -0.42462197181E+02 -0.32883532081E+03  0.33463154710E+03  0.47000000000E+01 0. -1.
         -5    1    4    4    0  503  0.53084338218E+02  0.42429660491E+02 -0.22434102791E+03  0.23445513400E+03  0.47000000000E+01 0.  1.
<mgrwt>
<rscale>  0 0.13397801E+03</rscale>
<asrwt>0</asrwt>
<pdfrwt beam="1">  1        1 0.14857620E+00 0.13409597E+03</pdfrwt>
<pdfrwt beam="2">  1       -1 0.29331682E-02 0.13409597E+03</pdfrwt>
<totfact> 0.64270785E+03</totfact>
</mgrwt>
</event>
<event>
 8    1  0.6836165E-004  0.9508180E+02  0.7546771E-02  0.1297268E+00
          1   -1    0    0  501    0  0.00000000000E+00  0.00000000000E+00  0.39093511840E+02  0.39093511840E+02  0.00000000000E+00 0. -1.
         -1   -1    0    0    0  501 -0.00000000000E+00 -0.00000000000E+00 -0.22207846962E+03  0.22207846962E+03  0.00000000000E+00 0.  1.
         23    2    1    2    0    0  0.24284230585E+02 -0.59384787860E+01 -0.13102078038E+03  0.16188574059E+03  0.91736354460E+02 0.  0.
         23    2    1    2    0    0 -0.24284230585E+02  0.59384787860E+01 -0.51964177408E+02  0.99286240877E+02  0.80823836264E+02 0.  0.
          5    1    4    4  502    0 -0.51242787550E+02 -0.10387979368E+02 -0.28672195318E+02  0.59815701748E+02  0.47000000000E+01 0. -1.
         -5    1    4    4    0  502  0.26958556965E+02  0.16326458154E+02 -0.23291982090E+02  0.39470539129E+02  0.47000000000E+01 0.  1.
          5    1    3    3  503    0 -0.34974044454E+02 -0.47272245339E+01 -0.50743055440E+02  0.61987725500E+02  0.47000000000E+01 0. -1.
         -5    1    3    3    0  503  0.59258275039E+02 -0.12112542520E+01 -0.80277724936E+02  0.99898015087E+02  0.47000000000E+01 0.  1.
<mgrwt>
<rscale>  0 0.92345996E+02</rscale>
<asrwt>0</asrwt>
<pdfrwt beam="1">  1        1 0.60143864E-02 0.95081797E+02</pdfrwt>
<pdfrwt beam="2">  1       -1 0.34165919E-01 0.95081797E+02</pdfrwt>
<totfact> 0.95673086E+03</totfact>
</mgrwt>
</event>
<event>
 8    1  0.6836165E-004  0.1228832E+03  0.7546771E-02  0.1238784E+00
         -1   -1    0    0    0  501 -0.00000000000E+00  0.00000000000E+00  0.54088109597E+02  0.54088109597E+02  0.00000000000E+00 0.  1.
          1   -1    0    0  501    0  0.00000000000E+00 -0.00000000000E+00 -0.10240196917E+04  0.10240196917E+04  0.00000000000E+00 0. -1.
         23    2    1    2    0    0  0.70327002136E+01  0.81949303052E+02 -0.24094652043E+02  0.12432177274E+03  0.90056669805E+02 0.  0.
         23    2    1    2    0    0 -0.70327002136E+01 -0.81949303052E+02 -0.94583693006E+03  0.95378602855E+03  0.91297003607E+02 0.  0.
          5    1    3    3  502    0 -0.31048638228E+02  0.50736587827E+00 -0.11357932390E+02  0.33397125387E+02  0.47000000000E+01 0. -1.
         -5    1    4    4    0  503 -0.45837743947E+02 -0.22291350081E+02 -0.43229759817E+03  0.43531747776E+03  0.47000000000E+01 0.  1.
          5    1    4    4  503    0  0.38805043734E+02 -0.59657952971E+02 -0.51353933188E+03  0.51846855080E+03  0.47000000000E+01 0. -1.
         -5    1    3    3    0  502  0.38081338442E+02  0.81441937174E+02 -0.12736719653E+02  0.90924647350E+02  0.47000000000E+01 0.  1.
<mgrwt>
<rscale>  0 0.12265292E+03</rscale>
<asrwt>0</asrwt>
<pdfrwt beam="1">  1        1 0.15754148E+00 0.12288324E+03</pdfrwt>
<pdfrwt beam="2">  1       -1 0.83212483E-02 0.12288324E+03</pdfrwt>
<totfact> 0.12445823E+03</totfact>
</mgrwt>
</event>
<event>
 8    1  0.6836165E-004  0.9337094E+02  0.7546771E-02  0.1295974E+00
          1   -1    0    0  501    0  0.00000000000E+00  0.00000000000E+00  0.11973141523E+03  0.11973141523E+03  0.00000000000E+00 0. -1.
         -1   -1    0    0    0  501 -0.00000000000E+00 -0.00000000000E+00 -0.90505203736E+02  0.90505203736E+02  0.00000000000E+00 0.  1.
         23    2    1    2    0    0 -0.73675371805E+00 -0.84587129758E+01 -0.33606830201E+02  0.99234832088E+02  0.92984085908E+02 0.  0.
         23    2    1    2    0    0  0.73675371805E+00  0.84587129758E+01  0.62833041694E+02  0.11100178688E+03  0.91111541146E+02 0.  0.
          5    1    4    4  502    0  0.21495486327E+02  0.39232489228E+02  0.57810926093E+02  0.73249145519E+02  0.47000000000E+01 0. -1.
         -5    1    4    4    0  502 -0.20758732609E+02 -0.30773776253E+02  0.50221156005E+01  0.37752641358E+02  0.47000000000E+01 0.  1.
          5    1    3    3  503    0  0.35789750831E+02  0.10535659984E+02  0.10172426305E+02  0.38954777021E+02  0.47000000000E+01 0. -1.
         -5    1    3    3    0  503 -0.36526504549E+02 -0.18994372960E+02 -0.43779256506E+02  0.60280055067E+02  0.47000000000E+01 0.  1.
<mgrwt>
<rscale>  0 0.92901253E+02</rscale>
<asrwt>0</asrwt>
<pdfrwt beam="1">  1        1 0.18420218E-01 0.93370942E+02</pdfrwt>
<pdfrwt beam="2">  1       -1 0.13923877E-01 0.93370942E+02</pdfrwt>
<totfact> 0.93802221E+03</totfact>
</mgrwt>
</event>
<event>
 8    1  0.6836165E-004  0.9510219E+02  0.7546771E-02  0.1292594E+00
         -1   -1    0    0    0  501 -0.00000000000E+00  0.00000000000E+00  0.31227615660E+03  0.31227615660E+03  0.00000000000E+00 0.  1.
          1   -1    0    0  501    0  0.00000000000E+00 -0.00000000000E+00 -0.51493853554E+02  0.51493853554E+02  0.00000000000E+00 0. -1.
         23    2    1    2    0    0  0.74583099065E+00  0.24174500393E+02  0.88777049350E+01  0.95515656288E+02  0.91975345708E+02 0.  0.
         23    2    1    2    0    0 -0.74583099065E+00 -0.24174500393E+02  0.25190459811E+03  0.26825435386E+03  0.88991623679E+02 0.  0.
          5    1    4    4  502    0 -0.28330216493E+02 -0.11591550079E+00  0.24129225464E+02  0.37508987249E+02  0.47000000000E+01 0. -1.
         -5    1    3    3    0  503  0.79928206819E+01 -0.24981991041E+02  0.31037926118E+02  0.40907553295E+02  0.47000000000E+01 0.  1.
          5    1    3    3  503    0 -0.72469896913E+01  0.49156491434E+02 -0.22160221183E+02  0.54608102994E+02  0.47000000000E+01 0. -1.
         -5    1    4    4    0  502  0.27584385502E+02 -0.24058584893E+02  0.22777537264E+03  0.23074536661E+03  0.47000000000E+01 0.  1.
<mgrwt>
<rscale>  0 0.94373229E+02</rscale>
<asrwt>0</asrwt>
<pdfrwt beam="1">  1        1 0.79221315E-02 0.95102192E+02</pdfrwt>
<pdfrwt beam="2">  1       -1 0.48042485E-01 0.95102192E+02</pdfrwt>
<totfact> 0.36575594E+03</totfact>
</mgrwt>
</event>
<event>
 8    1  0.6836165E-004  0.9299646E+02  0.7546771E-02  0.1296985E+00
          2   -1    0    0  501    0  0.00000000000E+00  0.00000000000E+00  0.14895957355E+03  0.14895957355E+03  0.00000000000E+00 0. -1.
         -2   -1    0    0    0  501 -0.00000000000E+00 -0.00000000000E+00 -0.13320001591E+03  0.13320001591E+03  0.00000000000E+00 0.  1.
         23    2    1    2    0    0 -0.12416643280E+02 -0.26106780634E+01  0.11471647557E+03  0.14636263475E+03  0.90006457615E+02 0.  0.
         23    2    1    2    0    0  0.12416643280E+02  0.26106780634E+01 -0.98956917936E+02  0.13579695471E+03  0.92126829054E+02 0.  0.
          5    1    3    3  502    0 -0.58052031766E-01 -0.27852438957E+02  0.88942008894E-01  0.28246409269E+02  0.47000000000E+01 0. -1.
         -5    1    4    4    0  503 -0.84298664503E+01  0.43351722153E+02 -0.64528588497E+02  0.78335580648E+02  0.47000000000E+01 0.  1.
          5    1    4    4  503    0  0.20846509731E+02 -0.40741044090E+02 -0.34428329439E+02  0.57461374065E+02  0.47000000000E+01 0. -1.
         -5    1    3    3    0  502 -0.12358591249E+02  0.25241760894E+02  0.11462753356E+03  0.11811622548E+03  0.47000000000E+01 0.  1.
<mgrwt>
<rscale>  0 0.92466932E+02</rscale>
<asrwt>0</asrwt>
<pdfrwt beam="1">  1        2 0.22916857E-01 0.92996459E+02</pdfrwt>
<pdfrwt beam="2">  1       -2 0.20492310E-01 0.92996459E+02</pdfrwt>
<totfact> 0.44642894E+03</totfact>
</mgrwt>
</event>
<event>
 8    1  0.6836165E-004  0.2386200E+03  0.7546771E-02  0.1120955E+00
         -1   -1    0    0    0  501 -0.00000000000E+00  0.00000000000E+00  0.11551644534E+03  0.11551644534E+03  0.00000000000E+00 0.  1.
          1   -1    0    0  501    0  0.00000000000E+00 -0.00000000000E+00 -0.49632230963E+03  0.49632230963E+03  0.00000000000E+00 0. -1.
         23    2    1    2    0    0 -0.21780872757E+03 -0.29149146696E+02 -0.22555733982E+03  0.32835287535E+03  0.93000981944E+02 0.  0.
         23    2    1    2    0    0  0.21780872757E+03  0.29149146696E+02 -0.15524852447E+03  0.28348587963E+03  0.89285077363E+02 0.  0.
          5    1    4    4  502    0  0.20085723530E+02  0.25070322010E+02 -0.49436336059E+02  0.59143880988E+02  0.47000000000E+01 0. -1.
         -5    1    4    4    0  502  0.19772300404E+03  0.40788246861E+01 -0.10581218841E+03  0.22434199864E+03  0.47000000000E+01 0.  1.
          5    1    3    3  503    0 -0.19448256673E+03 -0.33508788655E+02 -0.23069145070E+03  0.30362302795E+03  0.47000000000E+01 0. -1.
         -5    1    3    3    0  503 -0.23326160840E+02  0.43596419590E+01  0.51341108770E+01  0.24729847393E+02  0.47000000000E+01 0.  1.
<mgrwt>
<rscale>  0 0.23826329E+03</rscale>
<asrwt>0</asrwt>
<pdfrwt beam="1">  1        1 0.76357280E-01 0.23861998E+03</pdfrwt>
<pdfrwt beam="2">  1       -1 0.17771761E-01 0.23861998E+03</pdfrwt>
<totfact> 0.11156532E+03</totfact>
</mgrwt>
</event>
<event>
 8    1  0.6836165E-004  0.9926165E+02  0.7546771E-02  0.1282418E+00
         -1   -1    0    0    0  501 -0.00000000000E+00  0.00000000000E+00  0.83534970391E+02  0.83534970391E+02  0.00000000000E+00 0.  1.
          1   -1    0    0  501    0  0.00000000000E+00 -0.00000000000E+00 -0.12374990922E+03  0.12374990922E+03  0.00000000000E+00 0. -1.
         23    2    1    2    0    0  0.57605147248E+01 -0.28189452231E+02  0.47278359061E+01  0.98322832807E+02  0.93899937550E+02 0.  0.
         23    2    1    2    0    0 -0.57605147248E+01  0.28189452231E+02 -0.44942774739E+02  0.10896204681E+03  0.95000241559E+02 0.  0.
          5    1    4    4  502    0 -0.39546676710E+02 -0.16158754500E+02 -0.15119222076E+02  0.45560134570E+02  0.47000000000E+01 0. -1.
         -5    1    3    3    0  503  0.36933409678E+02 -0.17114156077E+02  0.34502518472E+02  0.53567572930E+02  0.47000000000E+01 0.  1.
          5    1    3    3  503    0 -0.31172894954E+02 -0.11075296154E+02 -0.29774682566E+02  0.44755259877E+02  0.47000000000E+01 0. -1.
         -5    1    4    4    0  502  0.33786161986E+02  0.44348206731E+02 -0.29823552663E+02  0.63401912238E+02  0.47000000000E+01 0.  1.
<mgrwt>
<rscale>  0 0.98997457E+02</rscale>
<asrwt>0</asrwt>
<pdfrwt beam="1">  1        1 0.19038448E-01 0.99261647E+02</pdfrwt>
<pdfrwt beam="2">  1       -1 0.12851534E-01 0.99261647E+02</pdfrwt>
<totfact> 0.10234889E+04</totfact>
</mgrwt>
</event>
<event>
 8    1  0.6836165E-004  0.1202001E+03  0.7546771E-02  0.1244373E+00
          1   -1    0    0  501    0  0.00000000000E+00  0.00000000000E+00  0.84301258815E+03  0.84301258815E+03  0.00000000000E+00 0. -1.
         -1   -1    0    0    0  501 -0.00000000000E+00 -0.00000000000E+00 -0.36128878873E+02  0.36128878873E+02  0.00000000000E+00 0.  1.
         23    2    1    2    0    0 -0.23244760580E+02 -0.76078243159E+02  0.83257726967E+02  0.14621875674E+03  0.90110253273E+02 0.  0.
         23    2    1    2    0    0  0.23244760580E+02  0.76078243159E+02  0.72362598231E+03  0.73292271028E+03  0.84928905584E+02 0.  0.
          5    1    3    3  502    0 -0.26903789544E+02 -0.62252958313E+01  0.69285167583E+02  0.74733477419E+02  0.47000000000E+01 0. -1.
         -5    1    4    4    0  503 -0.22627814125E+02 -0.32966976117E+01  0.10834100661E+03  0.11082756832E+03  0.47000000000E+01 0.  1.
          5    1    4    4  503    0  0.45872574705E+02  0.79374940770E+02  0.61528497570E+03  0.62209514196E+03  0.47000000000E+01 0. -1.
         -5    1    3    3    0  502  0.36590289635E+01 -0.69852947327E+02  0.13972559384E+02  0.71485279317E+02  0.47000000000E+01 0.  1.
<mgrwt>
<rscale>  0 0.11923003E+03</rscale>
<asrwt>0</asrwt>
<pdfrwt beam="1">  1        1 0.12969423E+00 0.12020015E+03</pdfrwt>
<pdfrwt beam="2">  1       -1 0.55582897E-02 0.12020015E+03</pdfrwt>
<totfact> 0.31108146E+03</totfact>
</mgrwt>
</event>
<event>
 8    1  0.6836165E-004  0.1276718E+03  0.7546771E-02  0.1232636E+00
          1   -1    0    0  501    0  0.00000000000E+00  0.00000000000E+00  0.14554392358E+03  0.14554392358E+03  0.00000000000E+00 0. -1.
         -1   -1    0    0    0  501 -0.00000000000E+00 -0.00000000000E+00 -0.15836441448E+03  0.15836441448E+03  0.00000000000E+00 0.  1.
         23    2    1    2    0    0  0.62051005353E+02  0.58367847754E+02  0.79019413791E+02  0.15014710335E+03  0.95094437116E+02 0.  0.
         23    2    1    2    0    0 -0.62051005353E+02 -0.58367847754E+02 -0.91839904692E+02  0.15376123471E+03  0.89167349908E+02 0.  0.
          5    1    4    4  502    0 -0.31167891906E+02 -0.77399585507E+02 -0.78979358570E+02  0.11498679230E+03  0.47000000000E+01 0. -1.
         -5    1    4    4    0  502 -0.30883113447E+02  0.19031737753E+02 -0.12860546122E+02  0.38774442415E+02  0.47000000000E+01 0.  1.
          5    1    3    3  503    0  0.10619936429E+02 -0.17724593184E+02  0.49036540362E+02  0.53419252559E+02  0.47000000000E+01 0. -1.
         -5    1    3    3    0  503  0.51431068924E+02  0.76092440939E+02  0.29982873429E+02  0.96727850786E+02  0.47000000000E+01 0.  1.
<mgrwt>
<rscale>  0 0.12656978E+03</rscale>
<asrwt>0</asrwt>
<pdfrwt beam="1">  1        1 0.22391373E-01 0.12767179E+03</pdfrwt>
<pdfrwt beam="2">  1       -1 0.24363756E-01 0.12767179E+03</pdfrwt>
<totfact> 0.30861584E+03</totfact>
</mgrwt>
</event>
<event>
 8    1  0.6836165E-004  0.1318111E+03  0.7546771E-02  0.1225100E+00
         -2   -1    0    0    0  501 -0.00000000000E+00  0.00000000000E+00  0.65605088297E+03  0.65605088297E+03  0.00000000000E+00 0.  1.
          2   -1    0    0  501    0  0.00000000000E+00 -0.00000000000E+00 -0.27643652423E+02  0.27643652423E+02  0.00000000000E+00 0. -1.
         23    2    1    2    0    0 -0.77858911064E+02 -0.55980905000E+02  0.39012249404E+03  0.41178843746E+03  0.90433871499E+02 0.  0.
         23    2    1    2    0    0  0.77858911064E+02  0.55980905000E+02  0.23828473651E+03  0.27190609793E+03  0.89204476814E+02 0.  0.
          5    1    3    3  502    0  0.77437663358E+01 -0.23266112721E+02  0.18997391386E+03  0.19160755691E+03  0.47000000000E+01 0. -1.
         -5    1    4    4    0  503  0.10095357980E+02  0.46126088279E+02  0.16417305420E+03  0.17089298991E+03  0.47000000000E+01 0.  1.
          5    1    4    4  503    0  0.67763553084E+02  0.98548167204E+01  0.74111682305E+02  0.10101310803E+03  0.47000000000E+01 0. -1.
         -5    1    3    3    0  502 -0.85602677400E+02 -0.32714792278E+02  0.20014858018E+03  0.22018088055E+03  0.47000000000E+01 0.  1.
<mgrwt>
<rscale>  0 0.13160046E+03</rscale>
<asrwt>0</asrwt>
<pdfrwt beam="1">  1        2 0.42528701E-02 0.13181107E+03</pdfrwt>
<pdfrwt beam="2">  1       -2 0.10093089E+00 0.13181107E+03</pdfrwt>
<totfact> 0.15754471E+03</totfact>
</mgrwt>
</event>
<event>
 8    1  0.6836165E-004  0.1293493E+03  0.7546771E-02  0.1229563E+00
         -2   -1    0    0    0  501 -0.00000000000E+00  0.00000000000E+00  0.34336297225E+02  0.34336297225E+02  0.00000000000E+00 0.  1.
          2   -1    0    0  501    0  0.00000000000E+00 -0.00000000000E+00 -0.50256604702E+03  0.50256604702E+03  0.00000000000E+00 0. -1.
         23    2    1    2    0    0 -0.17249570685E+02  0.85000264193E+02 -0.16978264094E+03  0.21163026858E+03  0.91862031389E+02 0.  0.
         23    2    1    2    0    0  0.17249570685E+02 -0.85000264193E+02 -0.29844710886E+03  0.32527207567E+03  0.95961731043E+02 0.  0.
          5    1    4    4  502    0 -0.39135237297E+02 -0.35905475271E+02 -0.14558540569E+03  0.15504183404E+03  0.47000000000E+01 0. -1.
         -5    1    3    3    0  503 -0.22473729072E+01  0.55450471685E+02 -0.21636155794E+02  0.59749633745E+02  0.47000000000E+01 0.  1.
          5    1    3    3  503    0 -0.15002197778E+02  0.29549792507E+02 -0.14814648515E+03  0.15188063483E+03  0.47000000000E+01 0. -1.
         -5    1    4    4    0  502  0.56384807983E+02 -0.49094788922E+02 -0.15286170317E+03  0.17023024163E+03  0.47000000000E+01 0.  1.
<mgrwt>
<rscale>  0 0.12858976E+03</rscale>
<asrwt>0</asrwt>
<pdfrwt beam="1">  1        2 0.77317843E-01 0.12934932E+03</pdfrwt>
<pdfrwt beam="2">  1       -2 0.52825080E-02 0.12934932E+03</pdfrwt>
<totfact> 0.10562981E+04</totfact>
</mgrwt>
</event>
<event>
 8    1  0.6836165E-004  0.1152949E+03  0.7546771E-02  0.1255201E+00
          2   -1    0    0  501    0  0.00000000000E+00  0.00000000000E+00  0.67693415623E+03  0.67693415623E+03  0.00000000000E+00 0. -1.
         -2   -1    0    0    0  501 -0.00000000000E+00 -0.00000000000E+00 -0.12170977811E+03  0.12170977811E+03  0.00000000000E+00 0.  1.
         23    2    1    2    0    0 -0.93325695045E+01  0.54833514565E+02 -0.89046636767E+02  0.14567849042E+03  0.10099063263E+03 0.  0.
         23    2    1    2    0    0  0.93325695045E+01 -0.54833514565E+02  0.64427101489E+03  0.65296544392E+03  0.90470543072E+02 0.  0.
          5    1    4    4  502    0 -0.66098367765E+01 -0.75373485344E+02  0.38804341865E+03  0.39537910541E+03  0.47000000000E+01 0. -1.
         -5    1    4    4    0  502  0.15942406281E+02  0.20539970779E+02  0.25622759623E+03  0.25758633852E+03  0.47000000000E+01 0.  1.
          5    1    3    3  503    0 -0.30778485601E+02 -0.16310502895E+02 -0.88451565278E+01  0.36244647530E+02  0.47000000000E+01 0. -1.
         -5    1    3    3    0  503  0.21445916097E+02  0.71144017460E+02 -0.80201480239E+02  0.10943384289E+03  0.47000000000E+01 0.  1.
<mgrwt>
<rscale>  0 0.11295102E+03</rscale>
<asrwt>0</asrwt>
<pdfrwt beam="1">  1        2 0.10414371E+00 0.11529492E+03</pdfrwt>
<pdfrwt beam="2">  1       -2 0.18724582E-01 0.11529492E+03</pdfrwt>
<totfact> 0.10261210E+03</totfact>
</mgrwt>
</event>
<event>
 8    1  0.6836165E-004  0.1254589E+03  0.7546771E-02  0.1238516E+00
         -2   -1    0    0    0  501 -0.00000000000E+00  0.00000000000E+00  0.17637489869E+02  0.17637489869E+02  0.00000000000E+00 0.  1.
          2   -1    0    0  501    0  0.00000000000E+00 -0.00000000000E+00 -0.85075216684E+03  0.85075216684E+03  0.00000000000E+00 0. -1.
         23    2    1    2    0    0  0.80407068564E+02  0.31865963847E+02 -0.51457465151E+03  0.52964799625E+03  0.90880094762E+02 0.  0.
         23    2    1    2    0    0 -0.80407068564E+02 -0.31865963847E+02 -0.31854002546E+03  0.33874166046E+03  0.76140845715E+02 0.  0.
          5    1    4    4  502    0 -0.68901913674E+02  0.89369762252E+01 -0.23256951813E+03  0.24277152637E+03  0.47000000000E+01 0. -1.
         -5    1    4    4    0  502 -0.11505154890E+02 -0.40802940072E+02 -0.85970507332E+02  0.95970134097E+02  0.47000000000E+01 0.  1.
          5    1    3    3  503    0  0.63371578641E+02  0.61677759084E+02 -0.41089830083E+03  0.42033273317E+03  0.47000000000E+01 0. -1.
         -5    1    3    3    0  503  0.17035489923E+02 -0.29811795237E+02 -0.10367635068E+03  0.10931526308E+03  0.47000000000E+01 0.  1.
<mgrwt>
<rscale>  0 0.12281977E+03</rscale>
<asrwt>0</asrwt>
<pdfrwt beam="1">  1        2 0.13088491E+00 0.12545887E+03</pdfrwt>
<pdfrwt beam="2">  1       -2 0.27134607E-02 0.12545887E+03</pdfrwt>
<totfact> 0.15285698E+04</totfact>
</mgrwt>
</event>
<event>
 7    1  0.6836165E-004  0.1565999E+03  0.7546771E-02  0.1217696E+00
         -2   -1    0    0    0  501 -0.00000000000E+00  0.00000000000E+00  0.11069874108E+02  0.11069874108E+02  0.00000000000E+00 0.  1.
          2   -1    0    0  501    0  0.00000000000E+00 -0.00000000000E+00 -0.14672579022E+04  0.14672579022E+04  0.00000000000E+00 0. -1.
         23    2    1    2    0    0 -0.16348884199E+02 -0.35691763058E+01 -0.37919968757E+03  0.39001374942E+03  0.89656548288E+02 0.  0.
          5    1    1    2  502    0 -0.29848290269E+01 -0.71879187165E+02 -0.36416037623E+03  0.37122822679E+03  0.47000000000E+01 0. -1.
         -5    1    3    3    0  503 -0.30653399628E+02  0.35027651526E+02 -0.15091012156E+03  0.15799532294E+03  0.47000000000E+01 0.  1.
          5    1    3    3  503    0  0.14304515429E+02 -0.38596827832E+02 -0.22828956600E+03  0.23201842648E+03  0.47000000000E+01 0. -1.
         -5    1    1    2    0  502  0.19333713226E+02  0.75448363471E+02 -0.71282796427E+03  0.71708580007E+03  0.47000000000E+01 0.  1.
<mgrwt>
<rscale>  0 0.13680379E+03</rscale>
<asrwt>0</asrwt>
<pdfrwt beam="1">  1        2 0.22573193E+00 0.15659992E+03</pdfrwt>
<pdfrwt beam="2">  1       -2 0.17030580E-02 0.15659992E+03</pdfrwt>
<totfact> 0.13591941E+04</totfact>
</mgrwt>
</event>
<event>
 8    1  0.1086604E-003  0.1066415E+03  0.7546771E-02  0.1270883E+00
          2   -1    0    0  501    0  0.00000000000E+00  0.00000000000E+00  0.92097948610E+03  0.92097948610E+03  0.00000000000E+00 0. -1.
         -2   -1    0    0    0  501 -0.00000000000E+00 -0.00000000000E+00 -0.21433692055E+02  0.21433692055E+02  0.00000000000E+00 0.  1.
         23    2    1    2    0    0 -0.38877247159E+02  0.42813408864E+02  0.76198218707E+03  0.76835528115E+03  0.80053459212E+02 0.  0.
         23    2    1    2    0    0  0.38877247159E+02 -0.42813408864E+02  0.13756360698E+03  0.17405789701E+03  0.89598980025E+02 0.  0.
          5    1    4    4  502    0  0.70914155434E+01  0.24407715469E+02  0.65447437571E+02  0.70366766541E+02  0.47000000000E+01 0. -1.
         -5    1    4    4    0  502  0.31785831616E+02 -0.67221124332E+02  0.72116169408E+02  0.10369113047E+03  0.47000000000E+01 0.  1.
          5    1    3    3  503    0 -0.43226882510E+02  0.63416983699E+02  0.61811576888E+03  0.62287998116E+03  0.47000000000E+01 0. -1.
         -5    1    3    3    0  503  0.43496353509E+01 -0.20603574835E+02  0.14386641819E+03  0.14547529999E+03  0.47000000000E+01 0.  1.
<mgrwt>
<rscale>  0 0.10461328E+03</rscale>
<asrwt>0</asrwt>
<pdfrwt beam="1">  1        2 0.14168912E+00 0.10664148E+03</pdfrwt>
<pdfrwt beam="2">  1       -2 0.32974918E-02 0.10664148E+03</pdfrwt>
<totfact> 0.10261701E+04</totfact>
</mgrwt>
</event>
<event>
 8    1  0.6836165E-004  0.1101291E+03  0.7546771E-02  0.1261650E+00
         -1   -1    0    0    0  501 -0.00000000000E+00  0.00000000000E+00  0.14074706205E+02  0.14074706205E+02  0.00000000000E+00 0.  1.
          1   -1    0    0  501    0  0.00000000000E+00 -0.00000000000E+00 -0.85465206429E+03  0.85465206429E+03  0.00000000000E+00 0. -1.
         23    2    1    2    0    0  0.54054283669E+02  0.24646658870E+02 -0.47212185665E+03  0.48416483593E+03  0.89371233875E+02 0.  0.
         23    2    1    2    0    0 -0.54054283669E+02 -0.24646658870E+02 -0.36845550143E+03  0.38456193457E+03  0.92731341007E+02 0.  0.
          5    1    4    4  502    0  0.18169155809E+02 -0.30608534254E+02 -0.92874517989E+02  0.99572921438E+02  0.47000000000E+01 0. -1.
         -5    1    4    4    0  502 -0.72223439478E+02  0.59618753837E+01 -0.27558098344E+03  0.28498901313E+03  0.47000000000E+01 0.  1.
          5    1    3    3  503    0  0.34436273953E+02 -0.27811407437E+02 -0.29500911215E+03  0.29834844997E+03  0.47000000000E+01 0. -1.
         -5    1    3    3    0  503  0.19618009716E+02  0.52458066307E+02 -0.17711274450E+03  0.18581638596E+03  0.47000000000E+01 0.  1.
<mgrwt>
<rscale>  0 0.10941879E+03</rscale>
<asrwt>0</asrwt>
<pdfrwt beam="1">  1        1 0.13148494E+00 0.11012913E+03</pdfrwt>
<pdfrwt beam="2">  1       -1 0.21653393E-02 0.11012913E+03</pdfrwt>
<totfact> 0.11970182E+04</totfact>
</mgrwt>
</event>
<event>
 8    1  0.6836165E-004  0.1226218E+03  0.7546771E-02  0.1242253E+00
         -1   -1    0    0    0  501 -0.00000000000E+00  0.00000000000E+00  0.43292821221E+02  0.43292821221E+02  0.00000000000E+00 0.  1.
          1   -1    0    0  501    0  0.00000000000E+00 -0.00000000000E+00 -0.33238042986E+03  0.33238042986E+03  0.00000000000E+00 0. -1.
         23    2    1    2    0    0  0.71035053977E+02  0.99918470785E+01 -0.17848929620E+03  0.21655146092E+03  0.99449939505E+02 0.  0.
         23    2    1    2    0    0 -0.71035053977E+02 -0.99918470785E+01 -0.11059831245E+03  0.15912179017E+03  0.89117571154E+02 0.  0.
          5    1    4    4  502    0 -0.31544633887E+02 -0.16305377890E+02 -0.11323809259E+03  0.11876819814E+03  0.47000000000E+01 0. -1.
         -5    1    3    3    0  503  0.69104871522E+00 -0.20017899884E+02 -0.11562470257E+03  0.11744086047E+03  0.47000000000E+01 0.  1.
          5    1    3    3  503    0  0.70344005262E+02  0.30009746962E+02 -0.62864593626E+02  0.99110600446E+02  0.47000000000E+01 0. -1.
         -5    1    4    4    0  502 -0.39490420089E+02  0.63135308119E+01  0.26397801486E+01  0.40353592026E+02  0.47000000000E+01 0.  1.
<mgrwt>
<rscale>  0 0.12051301E+03</rscale>
<asrwt>0</asrwt>
<pdfrwt beam="1">  1        1 0.51135453E-01 0.12262180E+03</pdfrwt>
<pdfrwt beam="2">  1       -1 0.66604338E-02 0.12262180E+03</pdfrwt>
<totfact> 0.82679839E+03</totfact>
</mgrwt>
</event>
<event>
 8    1  0.6836165E-004  0.1075417E+03  0.7546771E-02  0.1266434E+00
          1   -1    0    0  501    0  0.00000000000E+00  0.00000000000E+00  0.14758617548E+03  0.14758617548E+03  0.00000000000E+00 0. -1.
         -1   -1    0    0    0  501 -0.00000000000E+00 -0.00000000000E+00 -0.84104491308E+02  0.84104491308E+02  0.00000000000E+00 0.  1.
         23    2    1    2    0    0  0.12366728346E+02 -0.51287168259E+02 -0.27415917697E+01  0.10757663916E+03  0.93711831533E+02 0.  0.
         23    2    1    2    0    0 -0.12366728346E+02  0.51287168259E+02  0.66223275943E+02  0.12411402763E+03  0.90749435148E+02 0.  0.
          5    1    4    4  502    0  0.35284434337E+02  0.35128555400E+02  0.15127378545E+02  0.52248773121E+02  0.47000000000E+01 0. -1.
         -5    1    3    3    0  503 -0.16736785206E+02 -0.62811624192E+02 -0.23995485568E+02  0.69449934775E+02  0.47000000000E+01 0.  1.
          5    1    3    3  503    0  0.29103513552E+02  0.11524455933E+02  0.21253893798E+02  0.38126704384E+02  0.47000000000E+01 0. -1.
         -5    1    4    4    0  502 -0.47651162684E+02  0.16158612859E+02  0.51095897398E+02  0.71865254508E+02  0.47000000000E+01 0.  1.
<mgrwt>
<rscale>  0 0.10689301E+03</rscale>
<asrwt>0</asrwt>
<pdfrwt beam="1">  1        1 0.22705565E-01 0.10754170E+03</pdfrwt>
<pdfrwt beam="2">  1       -1 0.12939153E-01 0.10754170E+03</pdfrwt>
<totfact> 0.81723130E+03</totfact>
</mgrwt>
</event>
<event>
 8    1  0.6836165E-004  0.1177732E+03  0.7546771E-02  0.1247401E+00
         -2   -1    0    0    0  501 -0.00000000000E+00  0.00000000000E+00  0.11535839354E+03  0.11535839354E+03  0.00000000000E+00 0.  1.
          2   -1    0    0  501    0  0.00000000000E+00 -0.00000000000E+00 -0.11942780155E+03  0.11942780155E+03  0.00000000000E+00 0. -1.
         23    2    1    2    0    0 -0.71000437359E+02  0.18434691779E+02  0.61876013854E+01  0.11793565760E+03  0.92139204230E+02 0.  0.
         23    2    1    2    0    0  0.71000437359E+02 -0.18434691779E+02 -0.10257009397E+02  0.11685053750E+03  0.90376666818E+02 0.  0.
          5    1    4    4  502    0  0.78966598064E+02  0.71388202590E+01 -0.28182443705E+02  0.84279454778E+02  0.47000000000E+01 0. -1.
         -5    1    3    3    0  503 -0.47707612595E+02  0.55621439070E+02  0.72996435520E+01  0.73791161935E+02  0.47000000000E+01 0.  1.
          5    1    3    3  503    0 -0.23292824765E+02 -0.37186747291E+02 -0.11120421666E+01  0.44144495664E+02  0.47000000000E+01 0. -1.
         -5    1    4    4    0  502 -0.79661607043E+01 -0.25573512038E+02  0.17925434308E+02  0.32571082719E+02  0.47000000000E+01 0.  1.
<mgrwt>
<rscale>  0 0.11742828E+03</rscale>
<asrwt>0</asrwt>
<pdfrwt beam="1">  1        2 0.18373508E-01 0.11777323E+03</pdfrwt>
<pdfrwt beam="2">  1       -2 0.17747445E-01 0.11777323E+03</pdfrwt>
<totfact> 0.73968244E+03</totfact>
</mgrwt>
</event>
<event>
 8    1  0.6836165E-004  0.1589755E+03  0.7546771E-02  0.1189957E+00
         -3   -1    0    0    0  501 -0.00000000000E+00  0.00000000000E+00  0.19173343599E+02  0.19173343599E+02  0.00000000000E+00 0.  1.
          3   -1    0    0  501    0  0.00000000000E+00 -0.00000000000E+00 -0.13882315566E+04  0.13882315566E+04  0.00000000000E+00 0. -1.
         23    2    1    2    0    0 -0.68823027398E+02 -0.11045723355E+03 -0.84514231417E+03  0.85990047987E+03  0.90696717340E+02 0.  0.
         23    2    1    2    0    0  0.68823027398E+02  0.11045723355E+03 -0.52391589884E+03  0.54750442034E+03  0.91300666417E+02 0.  0.
          5    1    4    4  502    0 -0.20424377280E+02  0.11641700191E+02 -0.54364695400E+02  0.59416281241E+02  0.47000000000E+01 0. -1.
         -5    1    4    4    0  502  0.89247404678E+02  0.98815533360E+02 -0.46955120344E+03  0.48808813910E+03  0.47000000000E+01 0.  1.
          5    1    3    3  503    0 -0.88102272399E+02 -0.77897068562E+02 -0.70040250558E+03  0.71022230570E+03  0.47000000000E+01 0. -1.
         -5    1    3    3    0  503  0.19279245001E+02 -0.32560164988E+02 -0.14473980859E+03  0.14967817417E+03  0.47000000000E+01 0.  1.
<mgrwt>
<rscale>  0 0.15888895E+03</rscale>
<asrwt>0</asrwt>
<pdfrwt beam="1">  1        3 0.21357414E+00 0.15897554E+03</pdfrwt>
<pdfrwt beam="2">  1       -3 0.29497444E-02 0.15897554E+03</pdfrwt>
<totfact> 0.16759506E+02</totfact>
</mgrwt>
</event>
<event>
 8    1  0.6836165E-004  0.9698496E+02  0.7546771E-02  0.1286870E+00
          1   -1    0    0  501    0  0.00000000000E+00  0.00000000000E+00  0.59884974572E+02  0.59884974572E+02  0.00000000000E+00 0. -1.
         -1   -1    0    0    0  501 -0.00000000000E+00 -0.00000000000E+00 -0.16430646159E+03  0.16430646159E+03  0.00000000000E+00 0.  1.
         23    2    1    2    0    0 -0.18451893361E+02 -0.22694445495E+02 -0.76177132357E+02  0.12317745035E+03  0.92272523296E+02 0.  0.
         23    2    1    2    0    0  0.18451893361E+02  0.22694445495E+02 -0.28244354664E+02  0.10101398582E+03  0.92469300501E+02 0.  0.
          5    1    4    4  502    0  0.94273334006E+00  0.57194254319E+02 -0.11202409540E+02  0.58477820178E+02  0.47000000000E+01 0. -1.
         -5    1    4    4    0  502  0.17509160021E+02 -0.34499808825E+02 -0.17041945123E+02  0.42536165638E+02  0.47000000000E+01 0.  1.
          5    1    3    3  503    0 -0.48580575446E+02  0.60366660863E+01 -0.19983167656E+02  0.53084184440E+02  0.47000000000E+01 0. -1.
         -5    1    3    3    0  503  0.30128682085E+02 -0.28731111581E+02 -0.56193964701E+02  0.70093265908E+02  0.47000000000E+01 0.  1.
<mgrwt>
<rscale>  0 0.96938023E+02</rscale>
<asrwt>0</asrwt>
<pdfrwt beam="1">  1        1 0.92130731E-02 0.96984956E+02</pdfrwt>
<pdfrwt beam="2">  1       -1 0.25277917E-01 0.96984956E+02</pdfrwt>
<totfact> 0.89600111E+03</totfact>
</mgrwt>
</event>
<event>
 8    1  0.6836165E-004  0.1162955E+03  0.7546771E-02  0.1251017E+00
         -2   -1    0    0    0  501 -0.00000000000E+00  0.00000000000E+00  0.21645378619E+02  0.21645378619E+02  0.00000000000E+00 0.  1.
          2   -1    0    0  501    0  0.00000000000E+00 -0.00000000000E+00 -0.77038457121E+03  0.77038457121E+03  0.00000000000E+00 0. -1.
         23    2    1    2    0    0  0.67244002174E+02 -0.88800741590E+01 -0.55325586738E+03  0.56456926049E+03  0.89698291841E+02 0.  0.
         23    2    1    2    0    0 -0.67244002174E+02  0.88800741590E+01 -0.19548332521E+03  0.22746068933E+03  0.94467048284E+02 0.  0.
          5    1    4    4  502    0 -0.36294239037E+02  0.29460674028E+02 -0.18148410467E+03  0.18746672598E+03  0.47000000000E+01 0. -1.
         -5    1    3    3    0  503 -0.70362489179E+01 -0.32750362566E+02 -0.19164788881E+03  0.19461011879E+03  0.47000000000E+01 0.  1.
          5    1    3    3  503    0  0.74280251092E+02  0.23870288407E+02 -0.36160797857E+03  0.36995914171E+03  0.47000000000E+01 0. -1.
         -5    1    4    4    0  502 -0.30949763137E+02 -0.20580599869E+02 -0.13999220542E+02  0.39993963357E+02  0.47000000000E+01 0.  1.
<mgrwt>
<rscale>  0 0.11532353E+03</rscale>
<asrwt>0</asrwt>
<pdfrwt beam="1">  1        2 0.11852070E+00 0.11629546E+03</pdfrwt>
<pdfrwt beam="2">  1       -2 0.33300583E-02 0.11629546E+03</pdfrwt>
<totfact> 0.12740508E+04</totfact>
</mgrwt>
</event>
<event>
 8    1  0.6836165E-004  0.1273164E+03  0.7546771E-02  0.1231955E+00
          1   -1    0    0  501    0  0.00000000000E+00  0.00000000000E+00  0.44940900419E+02  0.44940900419E+02  0.00000000000E+00 0. -1.
         -1   -1    0    0    0  501 -0.00000000000E+00 -0.00000000000E+00 -0.36671959802E+03  0.36671959802E+03  0.00000000000E+00 0.  1.
         23    2    1    2    0    0 -0.77767129330E+02 -0.39076496378E+02 -0.12860502561E+03  0.18096608539E+03  0.92923476465E+02 0.  0.
         23    2    1    2    0    0  0.77767129330E+02  0.39076496378E+02 -0.19317367200E+03  0.23069441305E+03  0.91264153339E+02 0.  0.
          5    1    4    4  502    0  0.32972603767E+02 -0.19023838307E+02 -0.21565197931E+02  0.44002804285E+02  0.47000000000E+01 0. -1.
         -5    1    4    4    0  502  0.44794525563E+02  0.58100334685E+02 -0.17160847406E+03  0.18669160876E+03  0.47000000000E+01 0.  1.
          5    1    3    3  503    0 -0.86287448954E+02 -0.58976835418E+02 -0.99424542723E+02  0.14432990216E+03  0.47000000000E+01 0. -1.
         -5    1    3    3    0  503  0.85203196239E+01  0.19900339040E+02 -0.29180482885E+02  0.36636183231E+02  0.47000000000E+01 0.  1.
<mgrwt>
<rscale>  0 0.12701385E+03</rscale>
<asrwt>0</asrwt>
<pdfrwt beam="1">  1        1 0.69139845E-02 0.12731642E+03</pdfrwt>
<pdfrwt beam="2">  1       -1 0.56418401E-01 0.12731642E+03</pdfrwt>
<totfact> 0.33306341E+03</totfact>
</mgrwt>
</event>
<event>
 8    1  0.6836165E-004  0.9102489E+02  0.7546771E-02  0.1301615E+00
          1   -1    0    0  501    0  0.00000000000E+00  0.00000000000E+00  0.48353952739E+03  0.48353952739E+03  0.00000000000E+00 0. -1.
         -1   -1    0    0    0  501 -0.00000000000E+00 -0.00000000000E+00 -0.16890509566E+02  0.16890509566E+02  0.00000000000E+00 0.  1.
         23    2    1    2    0    0 -0.39136784509E+00 -0.96775464649E+00  0.25313295611E+03  0.26832092790E+03  0.88987286526E+02 0.  0.
         23    2    1    2    0    0  0.39136784509E+00  0.96775464649E+00  0.21351606171E+03  0.23210910905E+03  0.91018900114E+02 0.  0.
          5    1    4    4  502    0  0.31084107216E+02 -0.32601907443E+02  0.10765070013E+03  0.11678985114E+03  0.47000000000E+01 0. -1.
         -5    1    3    3    0  503  0.20790032307E+02  0.36626418216E+02  0.89447514989E+02  0.98978118250E+02  0.47000000000E+01 0.  1.
          5    1    3    3  503    0 -0.21181400153E+02 -0.37594172862E+02  0.16368544112E+03  0.16934280965E+03  0.47000000000E+01 0. -1.
         -5    1    4    4    0  502 -0.30692739371E+02  0.33569662089E+02  0.10586536158E+03  0.11531925791E+03  0.47000000000E+01 0.  1.
<mgrwt>
<rscale>  0 0.90512710E+02</rscale>
<asrwt>0</asrwt>
<pdfrwt beam="1">  1        1 0.74390686E-01 0.91024886E+02</pdfrwt>
<pdfrwt beam="2">  1       -1 0.25985403E-02 0.91024886E+02</pdfrwt>
<totfact> 0.19935464E+04</totfact>
</mgrwt>
</event>
<event>
 7    1  0.6836165E-004  0.2526324E+03  0.7546771E-02  0.1120049E+00
          1   -1    0    0  501    0  0.00000000000E+00  0.00000000000E+00  0.60361421403E+03  0.60361421403E+03  0.00000000000E+00 0. -1.
         -1   -1    0    0    0  501 -0.00000000000E+00 -0.00000000000E+00 -0.88842123849E+02  0.88842123849E+02  0.00000000000E+00 0.  1.
         23    2    1    2    0    0 -0.14705469470E+03 -0.10837540806E+03  0.28649324853E+03  0.35196495309E+03  0.91818486403E+02 0.  0.
          5    1    1    2  502    0  0.11164263963E+03 -0.24319636107E+02  0.89813401085E+02  0.14540997455E+03  0.47000000000E+01 0. -1.
         -5    1    1    2    0  502  0.35412055069E+02  0.13269504416E+03  0.13846544057E+03  0.19508141024E+03  0.47000000000E+01 0.  1.
          5    1    3    3  503    0 -0.67902691634E+02 -0.89538732396E+02  0.10885206089E+03  0.15652099313E+03  0.47000000000E+01 0. -1.
         -5    1    3    3    0  503 -0.79152003066E+02 -0.18836675661E+02  0.17764118763E+03  0.19544395995E+03  0.47000000000E+01 0.  1.
<mgrwt>
<rscale>  0 0.23961561E+03</rscale>
<asrwt>0</asrwt>
<pdfrwt beam="1">  1        1 0.92863722E-01 0.25263245E+03</pdfrwt>
<pdfrwt beam="2">  1       -1 0.13668019E-01 0.25263245E+03</pdfrwt>
<totfact> 0.13002699E+03</totfact>
</mgrwt>
</event>
<event>
 8    1  0.6836165E-004  0.1032169E+03  0.7546771E-02  0.1274108E+00
         -2   -1    0    0    0  501 -0.00000000000E+00  0.00000000000E+00  0.79680371817E+02  0.79680371817E+02  0.00000000000E+00 0. -1.
          2   -1    0    0  501    0  0.00000000000E+00 -0.00000000000E+00 -0.23589822907E+03  0.23589822907E+03  0.00000000000E+00 0.  1.
         23    2    1    2    0    0  0.42808712551E+02 -0.21977094241E+02  0.26123854815E+02  0.10647151294E+03  0.91313464158E+02 0.  0.
         23    2    1    2    0    0 -0.42808712551E+02  0.21977094241E+02 -0.18234171207E+03  0.20910708794E+03  0.90342103841E+02 0.  0.
          5    1    3    3  502    0  0.24809219443E+02  0.27712085158E+02  0.36595507448E+02  0.52390630828E+02  0.47000000000E+01 0. -1.
         -5    1    3    3    0  502  0.17999493109E+02 -0.49689179399E+02 -0.10471652633E+02  0.54080882116E+02  0.47000000000E+01 0.  1.
          5    1    4    4  503    0  0.17186792928E+02  0.31334534481E+02 -0.37664917706E+02  0.52134201136E+02  0.47000000000E+01 0. -1.
         -5    1    4    4    0  503 -0.59995505479E+02 -0.93574402400E+01 -0.14467679436E+03  0.15697288681E+03  0.47000000000E+01 0.  1.
<mgrwt>
<rscale>  0 0.10300164E+03</rscale>
<asrwt>0</asrwt>
<pdfrwt beam="1">  1        2 0.36292035E-01 0.10321689E+03</pdfrwt>
<pdfrwt beam="2">  1       -2 0.12258519E-01 0.10321689E+03</pdfrwt>
<totfact> 0.63414894E+03</totfact>
</mgrwt>
</event>
<event>
 8    1  0.6836165E-004  0.1009971E+03  0.7546771E-02  0.1282163E+00
         -1   -1    0    0    0  501 -0.00000000000E+00  0.00000000000E+00  0.10720749900E+03  0.10720749900E+03  0.00000000000E+00 0.  1.
          1   -1    0    0  501    0  0.00000000000E+00 -0.00000000000E+00 -0.91474103653E+02  0.91474103653E+02  0.00000000000E+00 0. -1.
         23    2    1    2    0    0  0.21214269765E+02  0.93536782812E+01 -0.10097317646E+02  0.10150060551E+03  0.98299951964E+02 0.  0.
         23    2    1    2    0    0 -0.21214269765E+02 -0.93536782812E+01  0.25830712988E+02  0.97180997138E+02  0.90771052281E+02 0.  0.
          5    1    4    4  502    0  0.22519902767E+02  0.22395339417E+02  0.28412130273E+02  0.42872326679E+02  0.47000000000E+01 0.  1.
         -5    1    4    4    0  502 -0.43734172532E+02 -0.31749017699E+02 -0.25814172844E+01  0.54308670459E+02  0.47000000000E+01 0. -1.
          5    1    3    3  503    0  0.56549915204E+02  0.22262357524E+01 -0.25208934295E+02  0.62132353919E+02  0.47000000000E+01 0. -1.
         -5    1    3    3    0  503 -0.35335645439E+02  0.71274425288E+01  0.15111616650E+02  0.39368251591E+02  0.47000000000E+01 0.  1.
<mgrwt>
<rscale>  0 0.99117307E+02</rscale>
<asrwt>0</asrwt>
<pdfrwt beam="1">  1        1 0.14072939E-01 0.10099711E+03</pdfrwt>
<pdfrwt beam="2">  1       -1 0.16493461E-01 0.10099711E+03</pdfrwt>
<totfact> 0.10235093E+04</totfact>
</mgrwt>
</event>
<event>
 8    1  0.6836165E-004  0.1373697E+03  0.7546771E-02  0.1217140E+00
          1   -1    0    0  501    0  0.00000000000E+00  0.00000000000E+00  0.55404531675E+03  0.55404531675E+03  0.00000000000E+00 0. -1.
         -1   -1    0    0    0  501 -0.00000000000E+00 -0.00000000000E+00 -0.55312079035E+02  0.55312079035E+02  0.00000000000E+00 0.  1.
         23    2    1    2    0    0  0.70160697220E+02  0.72664697457E+02  0.59416662302E+02  0.14906455446E+03  0.92126108935E+02 0.  0.
         23    2    1    2    0    0 -0.70160697220E+02 -0.72664697457E+02  0.43931657541E+03  0.46029284132E+03  0.93100830544E+02 0.  0.
          5    1    3    3  502    0  0.60500396679E+02 -0.25438035881E+01  0.26899116821E+02  0.66426059801E+02  0.47000000000E+01 0. -1.
         -5    1    4    4    0  503 -0.30837765379E+02 -0.29767287633E+02  0.47503755841E+02  0.64154158132E+02  0.47000000000E+01 0.  1.
          5    1    4    4  503    0 -0.39322931841E+02 -0.42897409824E+02  0.39181281957E+03  0.39613868319E+03  0.47000000000E+01 0. -1.
         -5    1    3    3    0  502  0.96603005411E+01  0.75208501045E+02  0.32517545481E+02  0.82638494663E+02  0.47000000000E+01 0.  1.
<mgrwt>
<rscale>  0 0.13720476E+03</rscale>
<asrwt>0</asrwt>
<pdfrwt beam="1">  1        1 0.85237737E-01 0.13736974E+03</pdfrwt>
<pdfrwt beam="2">  1       -1 0.85095510E-02 0.13736974E+03</pdfrwt>
<totfact> 0.30006830E+03</totfact>
</mgrwt>
</event>
<event>
 8    1  0.6836165E-004  0.9729712E+02  0.7546771E-02  0.1286262E+00
          2   -1    0    0  501    0  0.00000000000E+00  0.00000000000E+00  0.26903617915E+03  0.26903617915E+03  0.00000000000E+00 0. -1.
         -2   -1    0    0    0  501 -0.00000000000E+00 -0.00000000000E+00 -0.41697652598E+02  0.41697652598E+02  0.00000000000E+00 0.  1.
         23    2    1    2    0    0  0.30530392798E+02 -0.17811968036E+02  0.51887918219E+02  0.11026824207E+03  0.90649644575E+02 0.  0.
         23    2    1    2    0    0 -0.30530392798E+02  0.17811968036E+02  0.17545060834E+03  0.20046558969E+03  0.90300418563E+02 0.  0.
          5    1    4    4  502    0 -0.44628927841E+02  0.41751013649E+02  0.15169702109E+03  0.16361223838E+03  0.47000000000E+01 0. -1.
         -5    1    4    4    0  502  0.14098535043E+02 -0.23939045613E+02  0.23753587247E+02  0.36853351303E+02  0.47000000000E+01 0.  1.
          5    1    3    3  503    0  0.33584715196E+02  0.31069333352E+02  0.13712444738E+02  0.47993309017E+02  0.47000000000E+01 0. -1.
         -5    1    3    3    0  503 -0.30543223976E+01 -0.48881301389E+02  0.38175473481E+02  0.62274933049E+02  0.47000000000E+01 0.  1.
<mgrwt>
<rscale>  0 0.97215695E+02</rscale>
<asrwt>0</asrwt>
<pdfrwt beam="1">  1        2 0.41390180E-01 0.97297118E+02</pdfrwt>
<pdfrwt beam="2">  1       -2 0.64150236E-02 0.97297118E+02</pdfrwt>
<totfact> 0.14948025E+04</totfact>
</mgrwt>
</event>
<event>
 8    1  0.6836165E-004  0.9341626E+02  0.7546771E-02  0.1295261E+00
          2   -1    0    0  501    0  0.00000000000E+00  0.00000000000E+00  0.35255707580E+03  0.35255707580E+03  0.00000000000E+00 0. -1.
         -2   -1    0    0    0  501 -0.00000000000E+00 -0.00000000000E+00 -0.28998846709E+03  0.28998846709E+03  0.00000000000E+00 0.  1.
         23    2    1    2    0    0  0.13452077970E+02  0.18436054999E+02 -0.27608584808E+03  0.29146182226E+03  0.90585604810E+02 0.  0.
         23    2    1    2    0    0 -0.13452077970E+02 -0.18436054999E+02  0.33865445679E+03  0.35108372063E+03  0.89733445617E+02 0.  0.
          5    1    4    4  502    0  0.15286729851E+02 -0.26412336283E+02  0.30209242145E+03  0.30366629170E+03  0.47000000000E+01 0. -1.
         -5    1    4    4    0  502 -0.28738807821E+02  0.79762812846E+01  0.36562035339E+02  0.47417428929E+02  0.47000000000E+01 0.  1.
          5    1    3    3  503    0 -0.35033921452E+01  0.42364699629E+02 -0.61968285398E+02  0.75294089584E+02  0.47000000000E+01 0. -1.
         -5    1    3    3    0  503  0.16955470115E+02 -0.23928644631E+02 -0.21411756268E+03  0.21616773268E+03  0.47000000000E+01 0.  1.
<mgrwt>
<rscale>  0 0.93209049E+02</rscale>
<asrwt>0</asrwt>
<pdfrwt beam="1">  1        2 0.54239550E-01 0.93416264E+02</pdfrwt>
<pdfrwt beam="2">  1       -2 0.44613611E-01 0.93416264E+02</pdfrwt>
<totfact> 0.44390444E+02</totfact>
</mgrwt>
</event>
<event>
 8    1  0.6836165E-004  0.1080779E+03  0.7546771E-02  0.1265637E+00
         -2   -1    0    0    0  501 -0.00000000000E+00  0.00000000000E+00  0.31858377056E+03  0.31858377056E+03  0.00000000000E+00 0.  1.
          2   -1    0    0  501    0  0.00000000000E+00 -0.00000000000E+00 -0.93862225666E+02  0.93862225666E+02  0.00000000000E+00 0. -1.
         23    2    1    2    0    0  0.45552397194E+02  0.21880803601E+02  0.27416469885E+03  0.29359542195E+03  0.92077137449E+02 0.  0.
         23    2    1    2    0    0 -0.45552397194E+02 -0.21880803601E+02 -0.49443153948E+02  0.11885057428E+03  0.95535559231E+02 0.  0.
          5    1    3    3  502    0 -0.15150253920E+02  0.30890395588E+02  0.16174343214E+03  0.16542906206E+03  0.47000000000E+01 0. -1.
         -5    1    4    4    0  503  0.13606461895E+02 -0.24864896130E+02  0.13970649528E+02  0.31947893720E+02  0.47000000000E+01 0.  1.
          5    1    4    4  503    0 -0.59158859088E+02  0.29840925298E+01 -0.63413803477E+02  0.86902680559E+02  0.47000000000E+01 0. -1.
         -5    1    3    3    0  502  0.60702651114E+02 -0.90095919878E+01  0.11242126671E+03  0.12816635989E+03  0.47000000000E+01 0.  1.
<mgrwt>
<rscale>  0 0.10730857E+03</rscale>
<asrwt>0</asrwt>
<pdfrwt beam="1">  1        2 0.14440343E-01 0.10807790E+03</pdfrwt>
<pdfrwt beam="2">  1       -2 0.49012887E-01 0.10807790E+03</pdfrwt>
<totfact> 0.15698785E+03</totfact>
</mgrwt>
</event>
<event>
 8    1  0.6836165E-004  0.1001254E+03  0.7546771E-02  0.1280332E+00
         -2   -1    0    0    0  501 -0.00000000000E+00  0.00000000000E+00  0.12131464323E+02  0.12131464323E+02  0.00000000000E+00 0.  1.
          2   -1    0    0  501    0  0.00000000000E+00 -0.00000000000E+00 -0.82948868535E+03  0.82948868535E+03  0.00000000000E+00 0. -1.
         23    2    1    2    0    0 -0.44519977995E+01  0.37164076117E+02 -0.45064831014E+03  0.46163729434E+03  0.92866050072E+02 0.  0.
         23    2    1    2    0    0  0.44519977995E+01 -0.37164076117E+02 -0.36670891088E+03  0.37998285533E+03  0.92252675758E+02 0.  0.
          5    1    3    3  502    0  0.22255043776E+02  0.59182587639E+02 -0.24658070394E+03  0.25460164808E+03  0.47000000000E+01 0. -1.
         -5    1    3    3    0  502 -0.26707041575E+02 -0.22018511522E+02 -0.20406760620E+03  0.20703564626E+03  0.47000000000E+01 0.  1.
          5    1    4    4  503    0 -0.17927496093E+02  0.26135447912E+02 -0.10691927447E+03  0.11161665649E+03  0.47000000000E+01 0. -1.
         -5    1    4    4    0  503  0.22379493893E+02 -0.63299524029E+02 -0.25978963642E+03  0.26836619884E+03  0.47000000000E+01 0.  1.
<mgrwt>
<rscale>  0 0.99982918E+02</rscale>
<asrwt>0</asrwt>
<pdfrwt beam="1">  1        2 0.12761363E+00 0.10012538E+03</pdfrwt>
<pdfrwt beam="2">  1       -2 0.18663794E-02 0.10012538E+03</pdfrwt>
<totfact> 0.26639500E+04</totfact>
</mgrwt>
</event>
<event>
 7    1  0.6836165E-004  0.1500047E+03  0.7546771E-02  0.1215434E+00
         -3   -1    0    0    0  501 -0.00000000000E+00  0.00000000000E+00  0.19986150918E+03  0.19986150918E+03  0.00000000000E+00 0.  1.
          3   -1    0    0  501    0  0.00000000000E+00 -0.00000000000E+00 -0.83926515494E+02  0.83926515494E+02  0.00000000000E+00 0. -1.
         23    2    1    2    0    0  0.37532476646E+02 -0.44742607661E+02  0.53894646542E+02  0.12145992404E+03  0.91854735748E+02 0.  0.
          5    1    1    2  502    0 -0.31709107414E+02  0.74859350668E+02  0.89419917936E+02  0.12094379521E+03  0.47000000000E+01 0. -1.
         -5    1    1    2    0  502 -0.58233692327E+01 -0.30116743007E+02 -0.27379570792E+02  0.41384305423E+02  0.47000000000E+01 0.  1.
          5    1    3    3  503    0  0.60271768254E+02 -0.29480301166E+01  0.24250023176E+02  0.65203761809E+02  0.47000000000E+01 0. -1.
         -5    1    3    3    0  503 -0.22739291607E+02 -0.41794577545E+02  0.29644623367E+02  0.56256162236E+02  0.47000000000E+01 0.  1.
<mgrwt>
<rscale>  0 0.13844705E+03</rscale>
<asrwt>0</asrwt>
<pdfrwt beam="1">  1        3 0.12911772E-01 0.15000469E+03</pdfrwt>
<pdfrwt beam="2">  1       -3 0.30747924E-01 0.15000469E+03</pdfrwt>
<totfact> 0.11512797E+03</totfact>
</mgrwt>
</event>
<event>
 8    1  0.6836165E-004  0.1096473E+03  0.7546771E-02  0.1263048E+00
          1   -1    0    0  501    0  0.00000000000E+00  0.00000000000E+00  0.21610073148E+03  0.21610073148E+03  0.00000000000E+00 0. -1.
         -1   -1    0    0    0  501 -0.00000000000E+00 -0.00000000000E+00 -0.55509458963E+02  0.55509458963E+02  0.00000000000E+00 0.  1.
         23    2    1    2    0    0 -0.17566568592E+02 -0.65121906569E+02  0.10343362991E+03  0.14795933135E+03  0.81510740953E+02 0.  0.
         23    2    1    2    0    0  0.17566568592E+02  0.65121906569E+02  0.57157642600E+02  0.12365085908E+03  0.86447046204E+02 0.  0.
          5    1    3    3  502    0 -0.70055635777E+01 -0.83087133723E+02  0.73946906701E+02  0.11154723090E+03  0.47000000000E+01 0. -1.
         -5    1    4    4    0  503  0.26050094214E+01  0.84287549199E+02  0.48636928968E+02  0.97461879130E+02  0.47000000000E+01 0.  1.
          5    1    4    4  503    0  0.14961559170E+02 -0.19165642631E+02  0.85207136320E+01  0.26188979954E+02  0.47000000000E+01 0. -1.
         -5    1    3    3    0  502 -0.10561005014E+02  0.17965227154E+02  0.29486723211E+02  0.36412100452E+02  0.47000000000E+01 0.  1.
<mgrwt>
<rscale>  0 0.10867235E+03</rscale>
<asrwt>0</asrwt>
<pdfrwt beam="1">  1        1 0.33246266E-01 0.10964734E+03</pdfrwt>
<pdfrwt beam="2">  1       -1 0.85399169E-02 0.10964734E+03</pdfrwt>
<totfact> 0.95983766E+03</totfact>
</mgrwt>
</event>
<event>
 8    1  0.6836165E-004  0.9330458E+02  0.7546771E-02  0.1297612E+00
         -2   -1    0    0    0  501 -0.00000000000E+00  0.00000000000E+00  0.37988774680E+02  0.37988774680E+02  0.00000000000E+00 0.  1.
          2   -1    0    0  501    0  0.00000000000E+00 -0.00000000000E+00 -0.26556617638E+03  0.26556617638E+03  0.00000000000E+00 0. -1.
         23    2    1    2    0    0  0.18078317730E+02  0.82259472256E+01 -0.17535528677E+03  0.19663023862E+03  0.86714948902E+02 0.  0.
         23    2    1    2    0    0 -0.18078317730E+02 -0.82259472256E+01 -0.52222114937E+02  0.10692471244E+03  0.91166074077E+02 0.  0.
          5    1    3    3  502    0  0.37773886978E+02 -0.61224946895E+01 -0.16549431417E+03  0.16992589414E+03  0.47000000000E+01 0. -1.
         -5    1    3    3    0  502 -0.19695569247E+02  0.14348441915E+02 -0.98609726001E+01  0.26704344478E+02  0.47000000000E+01 0.  1.
          5    1    4    4  503    0  0.34930339367E+02 -0.13678501584E+02 -0.10953501091E+02  0.39361138195E+02  0.47000000000E+01 0. -1.
         -5    1    4    4    0  503 -0.53008657097E+02  0.54525543589E+01 -0.41268613846E+02  0.67563574247E+02  0.47000000000E+01 0.  1.
<mgrwt>
<rscale>  0 0.92199073E+02</rscale>
<asrwt>0</asrwt>
<pdfrwt beam="1">  1        2 0.40856336E-01 0.93304581E+02</pdfrwt>
<pdfrwt beam="2">  1       -2 0.58444267E-02 0.93304581E+02</pdfrwt>
<totfact> 0.17360868E+04</totfact>
</mgrwt>
</event>
<event>
 8    1  0.6836165E-004  0.1286140E+03  0.7546771E-02  0.1231527E+00
         -1   -1    0    0    0  501 -0.00000000000E+00  0.00000000000E+00  0.38181767127E+02  0.38181767127E+02  0.00000000000E+00 0.  1.
          1   -1    0    0  501    0  0.00000000000E+00 -0.00000000000E+00 -0.56668837213E+03  0.56668837213E+03  0.00000000000E+00 0. -1.
         23    2    1    2    0    0  0.68383964591E+02  0.62724166991E+02 -0.42423915997E+03  0.44330624377E+03  0.89055449991E+02 0.  0.
         23    2    1    2    0    0 -0.68383964591E+02 -0.62724166991E+02 -0.10426744503E+03  0.16156389549E+03  0.81366482622E+02 0.  0.
          5    1    3    3  502    0  0.38809524171E+02 -0.17072210705E+02 -0.16448643848E+03  0.16992797883E+03  0.47000000000E+01 0. -1.
         -5    1    4    4    0  503 -0.75560178379E+02 -0.17927304737E+02 -0.65100382768E+02  0.10144396802E+03  0.47000000000E+01 0.  1.
          5    1    4    4  503    0  0.71762137880E+01 -0.44796862254E+02 -0.39167062266E+02  0.60119927467E+02  0.47000000000E+01 0. -1.
         -5    1    3    3    0  502  0.29574440420E+02  0.79796377697E+02 -0.25975272149E+03  0.27337826494E+03  0.47000000000E+01 0.  1.
<mgrwt>
<rscale>  0 0.12729400E+03</rscale>
<asrwt>0</asrwt>
<pdfrwt beam="1">  1        1 0.87182821E-01 0.12861400E+03</pdfrwt>
<pdfrwt beam="2">  1       -1 0.58741184E-02 0.12861400E+03</pdfrwt>
<totfact> 0.50606213E+03</totfact>
</mgrwt>
</event>
<event>
 8    1  0.6836165E-004  0.1077988E+03  0.7546771E-02  0.1265518E+00
          2   -1    0    0  501    0  0.00000000000E+00  0.00000000000E+00  0.94126229950E+02  0.94126229950E+02  0.00000000000E+00 0. -1.
         -2   -1    0    0    0  501 -0.00000000000E+00 -0.00000000000E+00 -0.12711523399E+03  0.12711523399E+03  0.00000000000E+00 0.  1.
         23    2    1    2    0    0 -0.27194460551E+02 -0.45400483288E+02  0.65981382132E+01  0.10800057665E+03  0.93914038144E+02 0.  0.
         23    2    1    2    0    0  0.27194460551E+02  0.45400483288E+02 -0.39587142252E+02  0.11324088729E+03  0.91954413466E+02 0.  0.
          5    1    4    4  502    0  0.45090720545E+02  0.61527376597E+02 -0.44170627056E+02  0.88271883659E+02  0.47000000000E+01 0. -1.
         -5    1    4    4    0  502 -0.17896259995E+02 -0.16126893308E+02  0.45834848035E+01  0.24969003635E+02  0.47000000000E+01 0.  1.
          5    1    3    3  503    0 -0.18557174377E+02  0.87178718686E+01  0.38892563937E+02  0.44216417091E+02  0.47000000000E+01 0. -1.
         -5    1    3    3    0  503 -0.86372861731E+01 -0.54118355157E+02 -0.32294425723E+02  0.63784159555E+02  0.47000000000E+01 0.  1.
<mgrwt>
<rscale>  0 0.10737058E+03</rscale>
<asrwt>0</asrwt>
<pdfrwt beam="1">  1        2 0.14480959E-01 0.10779884E+03</pdfrwt>
<pdfrwt beam="2">  1       -2 0.19556190E-01 0.10779884E+03</pdfrwt>
<totfact> 0.82181411E+03</totfact>
</mgrwt>
</event>
<event>
 8    1  0.6836165E-004  0.2143395E+03  0.7546771E-02  0.1138348E+00
          1   -1    0    0  501    0  0.00000000000E+00  0.00000000000E+00  0.36014050951E+03  0.36014050951E+03  0.00000000000E+00 0. -1.
         -1   -1    0    0    0  501 -0.00000000000E+00 -0.00000000000E+00 -0.21587084849E+03  0.21587084849E+03  0.00000000000E+00 0.  1.
         23    2    1    2    0    0  0.14212987773E+02 -0.19331792650E+03 -0.11271390655E+03  0.24137425362E+03  0.89349179362E+02 0.  0.
         23    2    1    2    0    0 -0.14212987773E+02  0.19331792650E+03  0.25698356756E+03  0.33463710438E+03  0.91474629830E+02 0.  0.
          5    1    4    4  502    0  0.38403724615E+02  0.91855085762E+02  0.12817079540E+03  0.16236392961E+03  0.47000000000E+01 0. -1.
         -5    1    3    3    0  503  0.40801482413E+02 -0.15964576948E+03 -0.10990327471E+03  0.19812206458E+03  0.47000000000E+01 0.  1.
          5    1    3    3  503    0 -0.26588494639E+02 -0.33672157018E+02 -0.28106318372E+01  0.43252189040E+02  0.47000000000E+01 0. -1.
         -5    1    4    4    0  502 -0.52616712388E+02  0.10146284074E+03  0.12881277216E+03  0.17227317477E+03  0.47000000000E+01 0.  1.
<mgrwt>
<rscale>  0 0.21411458E+03</rscale>
<asrwt>0</asrwt>
<pdfrwt beam="1">  1        1 0.55406232E-01 0.21433954E+03</pdfrwt>
<pdfrwt beam="2">  1       -1 0.33210900E-01 0.21433954E+03</pdfrwt>
<totfact> 0.59781578E+02</totfact>
</mgrwt>
</event>
<event>
 8    1  0.6836165E-004  0.9244485E+02  0.7546771E-02  0.1298779E+00
          1   -1    0    0  501    0  0.00000000000E+00  0.00000000000E+00  0.20118441979E+03  0.20118441979E+03  0.00000000000E+00 0. -1.
         -1   -1    0    0    0  501 -0.00000000000E+00 -0.00000000000E+00 -0.46241167668E+02  0.46241167668E+02  0.00000000000E+00 0.  1.
         23    2    1    2    0    0  0.98972176427E+01  0.18468145104E+01  0.35286314211E+02  0.96217676269E+02  0.88945779074E+02 0.  0.
         23    2    1    2    0    0 -0.98972176427E+01 -0.18468145104E+01  0.11965693791E+03  0.15120791119E+03  0.91894961643E+02 0.  0.
          5    1    4    4  502    0  0.41831640459E+00  0.43074984392E+02  0.39548164956E+02  0.58666656803E+02  0.47000000000E+01 0. -1.
         -5    1    3    3    0  503 -0.31800904637E+02 -0.24097293003E+02  0.15411539400E+02  0.43030019899E+02  0.47000000000E+01 0.  1.
          5    1    3    3  503    0  0.41698122280E+02  0.25944107513E+02  0.19874774811E+02  0.53187656370E+02  0.47000000000E+01 0. -1.
         -5    1    4    4    0  502 -0.10315534047E+02 -0.44921798902E+02  0.80108772954E+02  0.92541254387E+02  0.47000000000E+01 0.  1.
<mgrwt>
<rscale>  0 0.91703203E+02</rscale>
<asrwt>0</asrwt>
<pdfrwt beam="1">  1        1 0.30951449E-01 0.92444846E+02</pdfrwt>
<pdfrwt beam="2">  1       -1 0.71140259E-02 0.92444846E+02</pdfrwt>
<totfact> 0.13560510E+04</totfact>
</mgrwt>
</event>
<event>
 8    1  0.6836165E-004  0.1353660E+03  0.7546771E-02  0.1219915E+00
         -1   -1    0    0    0  501 -0.00000000000E+00  0.00000000000E+00  0.25792897739E+02  0.25792897739E+02  0.00000000000E+00 0.  1.
          1   -1    0    0  501    0  0.00000000000E+00 -0.00000000000E+00 -0.83567893034E+03  0.83567893034E+03  0.00000000000E+00 0. -1.
         23    2    1    2    0    0 -0.66777456586E+02 -0.75036113528E+02 -0.57301724304E+03  0.58865175950E+03  0.89847014937E+02 0.  0.
         23    2    1    2    0    0  0.66777456586E+02  0.75036113528E+02 -0.23686878956E+03  0.27282006858E+03  0.90743150226E+02 0.  0.
          5    1    3    3  502    0 -0.42448456668E+02  0.74421387943E+01 -0.12168488660E+03  0.12917646276E+03  0.47000000000E+01 0. -1.
         -5    1    3    3    0  502 -0.24328999918E+02 -0.82478252322E+02 -0.45133235644E+03  0.45947529674E+03  0.47000000000E+01 0.  1.
          5    1    4    4  503    0  0.58293945255E+02  0.32176330363E+02 -0.21214603042E+03  0.22239947956E+03  0.47000000000E+01 0. -1.
         -5    1    4    4    0  503  0.84835113314E+01  0.42859783165E+02 -0.24722759144E+02  0.50420589020E+02  0.47000000000E+01 0.  1.
<mgrwt>
<rscale>  0 0.13521602E+03</rscale>
<asrwt>0</asrwt>
<pdfrwt beam="1">  1        1 0.12856600E+00 0.13536605E+03</pdfrwt>
<pdfrwt beam="2">  1       -1 0.39681379E-02 0.13536605E+03</pdfrwt>
<totfact> 0.52049648E+03</totfact>
</mgrwt>
</event>
<event>
 8    1  0.6836165E-004  0.9493672E+02  0.7546771E-02  0.1292553E+00
          3   -1    0    0  501    0  0.00000000000E+00  0.00000000000E+00  0.43131453132E+02  0.43131453132E+02  0.00000000000E+00 0. -1.
         -3   -1    0    0    0  501 -0.00000000000E+00 -0.00000000000E+00 -0.20611651851E+03  0.20611651851E+03  0.00000000000E+00 0.  1.
         23    2    1    2    0    0  0.11548143727E+02 -0.10032903270E+02 -0.70506331310E+02  0.11825448874E+03  0.93696118282E+02 0.  0.
         23    2    1    2    0    0 -0.11548143727E+02  0.10032903270E+02 -0.92478734066E+02  0.13099348290E+03  0.91503866233E+02 0.  0.
          5    1    3    3  502    0 -0.16511587387E+02 -0.27517264880E+02  0.75974545806E+01  0.33311314904E+02  0.47000000000E+01 0. -1.
         -5    1    3    3    0  502  0.28059731114E+02  0.17484361610E+02 -0.78103785891E+02  0.84943173838E+02  0.47000000000E+01 0.  1.
          5    1    4    4  503    0 -0.56421299055E+01  0.49792689171E+02 -0.64408388957E+02  0.81741520005E+02  0.47000000000E+01 0. -1.
         -5    1    4    4    0  503 -0.59060138217E+01 -0.39759785901E+02 -0.28070345109E+02  0.49251962892E+02  0.47000000000E+01 0.  1.
<mgrwt>
<rscale>  0 0.94391308E+02</rscale>
<asrwt>0</asrwt>
<pdfrwt beam="1">  1        3 0.66356082E-02 0.94936723E+02</pdfrwt>
<pdfrwt beam="2">  1       -3 0.31710233E-01 0.94936723E+02</pdfrwt>
<totfact> 0.29817792E+03</totfact>
</mgrwt>
</event>
<event>
 7    1  0.6836165E-004  0.2662740E+03  0.7546771E-02  0.1109123E+00
          1   -1    0    0  501    0  0.00000000000E+00  0.00000000000E+00  0.31097871101E+04  0.31097871101E+04  0.00000000000E+00 0. -1.
         -1   -1    0    0    0  501 -0.00000000000E+00 -0.00000000000E+00 -0.20017935206E+02  0.20017935206E+02  0.00000000000E+00 0.  1.
         23    2    1    2    0    0  0.77635574058E+02 -0.19639807134E+03  0.15933519614E+04  0.16098819091E+04  0.91377259449E+02 0.  0.
          5    1    3    3  502    0 -0.48971083944E+01 -0.98057675482E+02  0.55815008547E+03  0.56673882636E+03  0.47000000000E+01 0. -1.
         -5    1    1    2    0  503 -0.56985702219E+02 -0.10303629692E+02  0.36223626904E+03  0.36686610589E+03  0.47000000000E+01 0.  1.
          5    1    1    2  503    0 -0.20649871840E+02  0.20670170103E+03  0.11341809444E+04  0.11530570303E+04  0.47000000000E+01 0. -1.
         -5    1    3    3    0  502  0.82532682453E+02 -0.98340395858E+02  0.10352018759E+04  0.10431430827E+04  0.47000000000E+01 0.  1.
<mgrwt>
<rscale>  0 0.25673149E+03</rscale>
<asrwt>0</asrwt>
<pdfrwt beam="1">  1        1 0.47842840E+00 0.26627404E+03</pdfrwt>
<pdfrwt beam="2">  1       -1 0.30796848E-02 0.26627404E+03</pdfrwt>
<totfact> 0.21987472E+02</totfact>
</mgrwt>
</event>
<event>
 8    1  0.6836165E-004  0.9436642E+02  0.7546771E-02  0.1293020E+00
         -2   -1    0    0    0  501 -0.00000000000E+00  0.00000000000E+00  0.11852924202E+03  0.11852924202E+03  0.00000000000E+00 0.  1.
          2   -1    0    0  501    0  0.00000000000E+00 -0.00000000000E+00 -0.86244536080E+02  0.86244536080E+02  0.00000000000E+00 0. -1.
         23    2    1    2    0    0  0.39644687799E+00  0.22043875510E+02  0.53778558398E+02  0.10799047598E+03  0.91014943502E+02 0.  0.
         23    2    1    2    0    0 -0.39644687799E+00 -0.22043875510E+02 -0.21493852461E+02  0.96783302120E+02  0.91754739703E+02 0.  0.
          5    1    3    3  502    0  0.44214012448E+02  0.13083457178E+02  0.39239619993E+02  0.60728029160E+02  0.47000000000E+01 0. -1.
         -5    1    4    4    0  503 -0.83993456175E+01 -0.50921363017E+02  0.10305094889E+02  0.52837668372E+02  0.47000000000E+01 0.  1.
          5    1    4    4  503    0  0.80028987395E+01  0.28877487507E+02 -0.31798947350E+02  0.43945633748E+02  0.47000000000E+01 0. -1.
         -5    1    3    3    0  502 -0.43817565570E+02  0.89604183320E+01  0.14538938405E+02  0.47262446816E+02  0.47000000000E+01 0.  1.
<mgrwt>
<rscale>  0 0.94186117E+02</rscale>
<asrwt>0</asrwt>
<pdfrwt beam="1">  1        2 0.13268390E-01 0.94366423E+02</pdfrwt>
<pdfrwt beam="2">  1       -2 0.18235268E-01 0.94366423E+02</pdfrwt>
<totfact> 0.10109069E+04</totfact>
</mgrwt>
</event>
<event>
 8    1  0.6836165E-004  0.1097296E+03  0.7546771E-02  0.1262632E+00
          1   -1    0    0  501    0  0.00000000000E+00  0.00000000000E+00  0.10559424746E+03  0.10559424746E+03  0.00000000000E+00 0. -1.
         -1   -1    0    0    0  501 -0.00000000000E+00 -0.00000000000E+00 -0.11062725483E+03  0.11062725483E+03  0.00000000000E+00 0.  1.
         23    2    1    2    0    0  0.56553173957E+02  0.25009979255E+02 -0.34617793959E+01  0.10978423947E+03  0.90646758208E+02 0.  0.
         23    2    1    2    0    0 -0.56553173957E+02 -0.25009979255E+02 -0.15712279776E+01  0.10643726281E+03  0.86617905829E+02 0.  0.
          5    1    3    3  502    0  0.48735812070E+02  0.52143579761E+02  0.18293158194E+02  0.73829952764E+02  0.47000000000E+01 0. -1.
         -5    1    3    3    0  502  0.78173618865E+01 -0.27133600506E+02 -0.21754937590E+02  0.35954286711E+02  0.47000000000E+01 0.  1.
          5    1    4    4  503    0 -0.22446188289E+02  0.32109763771E+02  0.31022899592E+01  0.39580077073E+02  0.47000000000E+01 0. -1.
         -5    1    4    4    0  503 -0.34106985668E+02 -0.57119743026E+02 -0.46735179368E+01  0.66857185736E+02  0.47000000000E+01 0.  1.
<mgrwt>
<rscale>  0 0.10889416E+03</rscale>
<asrwt>0</asrwt>
<pdfrwt beam="1">  1        1 0.16245269E-01 0.10972965E+03</pdfrwt>
<pdfrwt beam="2">  1       -1 0.17019578E-01 0.10972965E+03</pdfrwt>
<totfact> 0.81623173E+03</totfact>
</mgrwt>
</event>
<event>
 8    1  0.6836165E-004  0.1091559E+03  0.7546771E-02  0.1262661E+00
          2   -1    0    0  501    0  0.00000000000E+00  0.00000000000E+00  0.90420188018E+03  0.90420188018E+03  0.00000000000E+00 0. -1.
         -2   -1    0    0    0  501 -0.00000000000E+00 -0.00000000000E+00 -0.13684060748E+02  0.13684060748E+02  0.00000000000E+00 0.  1.
         23    2    1    2    0    0 -0.46946603586E+02 -0.34525672163E+02  0.54233998207E+03  0.55299854573E+03  0.90987525508E+02 0.  0.
         23    2    1    2    0    0  0.46946603586E+02  0.34525672163E+02  0.34817783736E+03  0.36488739520E+03  0.92298424251E+02 0.  0.
          5    1    4    4  502    0 -0.21451028304E+02  0.22539731075E+02  0.18236246999E+03  0.18505768440E+03  0.47000000000E+01 0. -1.
         -5    1    4    4    0  502  0.68397631891E+02  0.11985941088E+02  0.16581536737E+03  0.17982971080E+03  0.47000000000E+01 0.  1.
          5    1    3    3  503    0 -0.58524585787E+02 -0.56013768512E+02  0.36405118229E+03  0.37298528487E+03  0.47000000000E+01 0. -1.
         -5    1    3    3    0  503  0.11577982201E+02  0.21488096350E+02  0.17828879978E+03  0.18001326086E+03  0.47000000000E+01 0.  1.
<mgrwt>
<rscale>  0 0.10887827E+03</rscale>
<asrwt>0</asrwt>
<pdfrwt beam="1">  1        2 0.13910793E+00 0.10915587E+03</pdfrwt>
<pdfrwt beam="2">  1       -2 0.21052408E-02 0.10915587E+03</pdfrwt>
<totfact> 0.20225171E+04</totfact>
</mgrwt>
</event>
<event>
 8    1  0.6836165E-004  0.2396474E+03  0.7546771E-02  0.1120135E+00
          1   -1    0    0  501    0  0.00000000000E+00  0.00000000000E+00  0.11064837829E+03  0.11064837829E+03  0.00000000000E+00 0. -1.
         -1   -1    0    0    0  501 -0.00000000000E+00 -0.00000000000E+00 -0.53059458044E+03  0.53059458044E+03  0.00000000000E+00 0.  1.
         23    2    1    2    0    0  0.22123231102E+03 -0.84062679469E+01 -0.15962665311E+03  0.28741087047E+03  0.90055201407E+02 0.  0.
         23    2    1    2    0    0 -0.22123231102E+03  0.84062679469E+01 -0.26031954903E+03  0.35383208826E+03  0.91741366301E+02 0.  0.
          5    1    4    4  502    0 -0.10208323153E+03  0.45114809721E+02 -0.15182805798E+03  0.18849451293E+03  0.47000000000E+01 0. -1.
         -5    1    3    3    0  503  0.15301774609E+03 -0.65576544341E+01 -0.15637058363E+03  0.21893214217E+03  0.47000000000E+01 0.  1.
          5    1    3    3  503    0  0.68214564936E+02 -0.18486135128E+01 -0.32560694768E+01  0.68478728301E+02  0.47000000000E+01 0. -1.
         -5    1    4    4    0  502 -0.11914907950E+03 -0.36708541774E+02 -0.10849149105E+03  0.16533757533E+03  0.47000000000E+01 0.  1.
<mgrwt>
<rscale>  0 0.23948714E+03</rscale>
<asrwt>0</asrwt>
<pdfrwt beam="1">  1        1 0.17022828E-01 0.23964741E+03</pdfrwt>
<pdfrwt beam="2">  1       -1 0.81629934E-01 0.23964741E+03</pdfrwt>
<totfact> 0.49434418E+02</totfact>
</mgrwt>
</event>
<event>
 8    1  0.6836165E-004  0.9626896E+02  0.7546771E-02  0.1289763E+00
         -1   -1    0    0    0  501 -0.00000000000E+00  0.00000000000E+00  0.15406628908E+02  0.15406628908E+02  0.00000000000E+00 0.  1.
          1   -1    0    0  501    0  0.00000000000E+00 -0.00000000000E+00 -0.65778482678E+03  0.65778482678E+03  0.00000000000E+00 0. -1.
         23    2    1    2    0    0  0.11020100058E+02  0.25261368109E+02 -0.20607078119E+03  0.22638962662E+03  0.89596410958E+02 0.  0.
         23    2    1    2    0    0 -0.11020100058E+02 -0.25261368109E+02 -0.43630741668E+03  0.44680182906E+03  0.92239542951E+02 0.  0.
          5    1    4    4  502    0 -0.26362541176E+02 -0.41854374263E+02 -0.40428671601E+03  0.40732862773E+03  0.47000000000E+01 0. -1.
         -5    1    4    4    0  502  0.15342441118E+02  0.16593006155E+02 -0.32020700664E+02  0.39473201336E+02  0.47000000000E+01 0.  1.
          5    1    3    3  503    0 -0.78969004719E+01 -0.31976941217E+02 -0.73855327067E+02  0.81003611913E+02  0.47000000000E+01 0. -1.
         -5    1    3    3    0  503  0.18917000530E+02  0.57238309325E+02 -0.13221545413E+03  0.14538601471E+03  0.47000000000E+01 0.  1.
<mgrwt>
<rscale>  0 0.95630270E+02</rscale>
<asrwt>0</asrwt>
<pdfrwt beam="1">  1        1 0.10119769E+00 0.96268960E+02</pdfrwt>
<pdfrwt beam="2">  1       -1 0.23702500E-02 0.96268960E+02</pdfrwt>
<totfact> 0.15218519E+04</totfact>
</mgrwt>
</event>
<event>
 8    1  0.6836165E-004  0.9355143E+02  0.7546771E-02  0.1297773E+00
         -1   -1    0    0    0  501 -0.00000000000E+00  0.00000000000E+00  0.88512342499E+02  0.88512342499E+02  0.00000000000E+00 0.  1.
          1   -1    0    0  501    0  0.00000000000E+00 -0.00000000000E+00 -0.14622642157E+03  0.14622642157E+03  0.00000000000E+00 0. -1.
         23    2    1    2    0    0 -0.24252738091E+01 -0.72631265946E+01 -0.99024358683E+02  0.13247240196E+03  0.87661158491E+02 0.  0.
         23    2    1    2    0    0  0.24252738091E+01  0.72631265946E+01  0.41310279610E+02  0.10226636211E+03  0.93237517432E+02 0.  0.
          5    1    4    4  502    0  0.45344357220E+02  0.13695743023E+02  0.10249071597E+02  0.48691042063E+02  0.47000000000E+01 0. -1.
         -5    1    3    3    0  503  0.34099456329E+02 -0.28992869981E+02 -0.55567567407E+02  0.71506670872E+02  0.47000000000E+01 0.  1.
          5    1    3    3  503    0 -0.36524730138E+02  0.21729743386E+02 -0.43456791276E+02  0.60965731090E+02  0.47000000000E+01 0. -1.
         -5    1    4    4    0  502 -0.42919083410E+02 -0.64326164281E+01  0.31061208013E+02  0.53575320047E+02  0.47000000000E+01 0.  1.
<mgrwt>
<rscale>  0 0.92130254E+02</rscale>
<asrwt>0</asrwt>
<pdfrwt beam="1">  1        1 0.22496372E-01 0.93551428E+02</pdfrwt>
<pdfrwt beam="2">  1       -1 0.13617284E-01 0.93551428E+02</pdfrwt>
<totfact> 0.75546285E+03</totfact>
</mgrwt>
</event>
<event>
 8    1  0.6836165E-004  0.1235140E+03  0.7546771E-02  0.1237736E+00
          1   -1    0    0  501    0  0.00000000000E+00  0.00000000000E+00  0.12079152547E+04  0.12079152547E+04  0.00000000000E+00 0. -1.
         -1   -1    0    0    0  501 -0.00000000000E+00 -0.00000000000E+00 -0.13242221506E+02  0.13242221506E+02  0.00000000000E+00 0.  1.
         23    2    1    2    0    0  0.50372723891E+02  0.65124353884E+02  0.73918553417E+03  0.74943375437E+03  0.92071197880E+02 0.  0.
         23    2    1    2    0    0 -0.50372723891E+02 -0.65124353884E+02  0.45548749901E+03  0.47172372182E+03  0.90971507604E+02 0.  0.
          5    1    4    4  502    0  0.34878481370E+01 -0.57161021498E+02  0.32833507571E+03  0.33332500567E+03  0.47000000000E+01 0. -1.
         -5    1    3    3    0  503 -0.15374533190E+02  0.17251202401E+02  0.48165288678E+02  0.53628027081E+02  0.47000000000E+01 0.  1.
          5    1    3    3  503    0  0.65747257081E+02  0.47873151483E+02  0.69102024549E+03  0.69580572729E+03  0.47000000000E+01 0. -1.
         -5    1    4    4    0  502 -0.53860572028E+02 -0.79633323863E+01  0.12715242330E+03  0.13839871615E+03  0.47000000000E+01 0.  1.
<mgrwt>
<rscale>  0 0.12330906E+03</rscale>
<asrwt>0</asrwt>
<pdfrwt beam="1">  1        1 0.18583303E+00 0.12351396E+03</pdfrwt>
<pdfrwt beam="2">  1       -1 0.20372658E-02 0.12351396E+03</pdfrwt>
<totfact> 0.73097634E+03</totfact>
</mgrwt>
</event>
<event>
 8    1  0.6836165E-004  0.4190787E+03  0.7546771E-02  0.1037380E+00
         -2   -1    0    0    0  501 -0.00000000000E+00  0.00000000000E+00  0.19922940093E+03  0.19922940093E+03  0.00000000000E+00 0.  1.
          2   -1    0    0  501    0  0.00000000000E+00 -0.00000000000E+00 -0.15928282068E+04  0.15928282068E+04  0.00000000000E+00 0. -1.
         23    2    1    2    0    0  0.12588380200E+03 -0.38889185769E+03 -0.97802443166E+02  0.43017834070E+03  0.91675941949E+02 0.  0.
         23    2    1    2    0    0 -0.12588380200E+03  0.38889185769E+03 -0.12957963627E+04  0.13618792671E+04  0.92430059060E+02 0.  0.
          5    1    4    4  502    0 -0.92296381767E+02  0.34778873965E+03 -0.11929871812E+04  0.12460803080E+04  0.47000000000E+01 0. -1.
         -5    1    3    3    0  503  0.13664446948E+03 -0.30632794779E+03 -0.75355164713E+02  0.34381537704E+03  0.47000000000E+01 0.  1.
          5    1    3    3  503    0 -0.10760667480E+02 -0.82563909900E+02 -0.22447278453E+02  0.86362963662E+02  0.47000000000E+01 0.  1.
         -5    1    4    4    0  502 -0.33587420235E+02  0.41103118041E+02 -0.10280918153E+03  0.11579895905E+03  0.47000000000E+01 0.  1.
<mgrwt>
<rscale>  0 0.41903724E+03</rscale>
<asrwt>0</asrwt>
<pdfrwt beam="1">  1        2 0.24505049E+00 0.41907866E+03</pdfrwt>
<pdfrwt beam="2">  1       -2 0.30650677E-01 0.41907866E+03</pdfrwt>
<totfact> 0.11748378E+02</totfact>
</mgrwt>
</event>
<event>
 8    1  0.6836165E-004  0.9326947E+02  0.7546771E-02  0.1296443E+00
         -3   -1    0    0    0  501 -0.00000000000E+00  0.00000000000E+00  0.44630508380E+03  0.44630508380E+03  0.00000000000E+00 0.  1.
          3   -1    0    0  501    0  0.00000000000E+00 -0.00000000000E+00 -0.20271796393E+02  0.20271796393E+02  0.00000000000E+00 0. -1.
         23    2    1    2    0    0 -0.67173031537E+00  0.49416568633E+01  0.27337705600E+03  0.28884980254E+03  0.93136042913E+02 0.  0.
         23    2    1    2    0    0  0.67173031537E+00 -0.49416568633E+01  0.15265623141E+03  0.17772707765E+03  0.90874187465E+02 0.  0.
          5    1    4    4  502    0  0.24926480634E+02 -0.37365193016E+02  0.50555211007E+02  0.67789427243E+02  0.47000000000E+01 0. -1.
         -5    1    3    3    0  503 -0.27655829541E+02 -0.13448533690E+02  0.23968294611E+03  0.24169342694E+03  0.47000000000E+01 0.  1.
          5    1    3    3  503    0  0.26984099225E+02  0.18390190553E+02  0.33694109881E+02  0.47156375606E+02  0.47000000000E+01 0. -1.
         -5    1    4    4    0  502 -0.24254750319E+02  0.32423536153E+02  0.10210102041E+03  0.10993765041E+03  0.47000000000E+01 0.  1.
<mgrwt>
<rscale>  0 0.92699632E+02</rscale>
<asrwt>0</asrwt>
<pdfrwt beam="1">  1        3 0.31187382E-02 0.93269468E+02</pdfrwt>
<pdfrwt beam="2">  1       -3 0.68662313E-01 0.93269468E+02</pdfrwt>
<totfact> 0.21237335E+03</totfact>
</mgrwt>
</event>
<event>
 8    1  0.6836165E-004  0.1047838E+03  0.7546771E-02  0.1272929E+00
          1   -1    0    0  501    0  0.00000000000E+00  0.00000000000E+00  0.30872213690E+02  0.30872213690E+02  0.00000000000E+00 0. -1.
         -1   -1    0    0    0  501 -0.00000000000E+00 -0.00000000000E+00 -0.34075385548E+03  0.34075385548E+03  0.00000000000E+00 0.  1.
         23    2    1    2    0    0 -0.46074092705E+02 -0.10804353111E+02 -0.16092096125E+03  0.18950265141E+03  0.88182441875E+02 0.  0.
         23    2    1    2    0    0  0.46074092705E+02  0.10804353111E+02 -0.14896068053E+03  0.18212341776E+03  0.93488496012E+02 0.  0.
          5    1    4    4  502    0  0.27749039436E+02  0.50733489095E+02 -0.10398757837E+03  0.11907729658E+03  0.47000000000E+01 0. -1.
         -5    1    3    3    0  503 -0.71381012924E+02 -0.11490013745E+02 -0.13345959955E+03  0.15185790771E+03  0.47000000000E+01 0.  1.
          5    1    3    3  503    0  0.25306920219E+02  0.68566063418E+00 -0.27461361704E+02  0.37644743698E+02  0.47000000000E+01 0. -1.
         -5    1    4    4    0  502  0.18325053269E+02 -0.39929135984E+02 -0.44973102168E+02  0.63046121184E+02  0.47000000000E+01 0.  1.
<mgrwt>
<rscale>  0 0.10358716E+03</rscale>
<asrwt>0</asrwt>
<pdfrwt beam="1">  1        1 0.47495714E-02 0.10478385E+03</pdfrwt>
<pdfrwt beam="2">  1       -1 0.52423669E-01 0.10478385E+03</pdfrwt>
<totfact> 0.62556844E+03</totfact>
</mgrwt>
</event>
<event>
 8    1  0.6836165E-004  0.1095108E+03  0.7546771E-02  0.1265332E+00
          2   -1    0    0  501    0  0.00000000000E+00  0.00000000000E+00  0.11446978117E+03  0.11446978117E+03  0.00000000000E+00 0. -1.
         -2   -1    0    0    0  501 -0.00000000000E+00 -0.00000000000E+00 -0.43552793639E+03  0.43552793639E+03  0.00000000000E+00 0.  1.
         23    2    1    2    0    0 -0.24621604858E+02 -0.38369059823E+02 -0.40148088621E+03  0.41412858920E+03  0.90758901634E+02 0.  0.
         23    2    1    2    0    0  0.24621604858E+02  0.38369059823E+02  0.80422730991E+02  0.13586912836E+03  0.99570056756E+02 0.  0.
          5    1    3    3  502    0  0.36770173306E+01  0.22878684943E+02 -0.40753499393E+02  0.47115734038E+02  0.47000000000E+01 0. -1.
         -5    1    3    3    0  502 -0.28298622189E+02 -0.61247744766E+02 -0.36072738682E+03  0.36701285516E+03  0.47000000000E+01 0.  1.
          5    1    4    4  503    0  0.54682476451E+02  0.42917119482E+02  0.78625008476E+02  0.10505253130E+03  0.47000000000E+01 0. -1.
         -5    1    4    4    0  503 -0.30060871593E+02 -0.45480596591E+01  0.17977225155E+01  0.30816597052E+02  0.47000000000E+01 0.  1.
<mgrwt>
<rscale>  0 0.10746803E+03</rscale>
<asrwt>0</asrwt>
<pdfrwt beam="1">  1        2 0.17610736E-01 0.10951075E+03</pdfrwt>
<pdfrwt beam="2">  1       -2 0.67004297E-01 0.10951075E+03</pdfrwt>
<totfact> 0.66284561E+02</totfact>
</mgrwt>
</event>
<event>
 8    1  0.6836165E-004  0.9878668E+02  0.7546771E-02  0.1283806E+00
          1   -1    0    0  501    0  0.00000000000E+00  0.00000000000E+00  0.92058644316E+02  0.92058644316E+02  0.00000000000E+00 0. -1.
         -1   -1    0    0    0  501 -0.00000000000E+00 -0.00000000000E+00 -0.11032613759E+03  0.11032613759E+03  0.00000000000E+00 0.  1.
         23    2    1    2    0    0 -0.14046386589E+02 -0.32583772476E+02 -0.33150921075E+02  0.10420072374E+03  0.92194381900E+02 0.  0.
         23    2    1    2    0    0  0.14046386589E+02  0.32583772476E+02  0.14883427805E+02  0.98184058167E+02  0.90330446971E+02 0.  0.
          5    1    4    4  502    0  0.28596874951E+02  0.48307636452E+02  0.36711709149E+02  0.67240230408E+02  0.47000000000E+01 0. -1.
         -5    1    3    3    0  503 -0.17986819843E+01 -0.50222093425E+02 -0.53991507435E+02  0.73909855906E+02  0.47000000000E+01 0.  1.
          5    1    3    3  503    0 -0.12247704605E+02  0.17638320950E+02  0.20840586360E+02  0.30290867829E+02  0.47000000000E+01 0. -1.
         -5    1    4    4    0  502 -0.14550488362E+02 -0.15723863977E+02 -0.21828281345E+02  0.30943827759E+02  0.47000000000E+01 0.  1.
<mgrwt>
<rscale>  0 0.98349472E+02</rscale>
<asrwt>0</asrwt>
<pdfrwt beam="1">  1        1 0.14162868E-01 0.98786676E+02</pdfrwt>
<pdfrwt beam="2">  1       -1 0.16973252E-01 0.98786676E+02</pdfrwt>
<totfact> 0.96857523E+03</totfact>
</mgrwt>
</event>
<event>
 8    1  0.6836165E-004  0.1178440E+03  0.7546771E-02  0.1246787E+00
         -2   -1    0    0    0  501 -0.00000000000E+00  0.00000000000E+00  0.27853808245E+03  0.27853808245E+03  0.00000000000E+00 0.  1.
          2   -1    0    0  501    0  0.00000000000E+00 -0.00000000000E+00 -0.78027615482E+02  0.78027615482E+02  0.00000000000E+00 0. -1.
         23    2    1    2    0    0 -0.44593679076E+02 -0.59053292964E+02 -0.69799768068E+01  0.11805053051E+03  0.91713249067E+02 0.  0.
         23    2    1    2    0    0  0.44593679076E+02  0.59053292964E+02  0.20749044377E+03  0.23851516742E+03  0.91440216578E+02 0.  0.
          5    1    4    4  502    0 -0.18353455528E+02  0.11075363451E+02  0.11325817972E+03  0.11536471852E+03  0.47000000000E+01 0. -1.
         -5    1    4    4    0  502  0.62947134605E+02  0.47977929513E+02  0.94232264048E+02  0.12315044889E+03  0.47000000000E+01 0.  1.
          5    1    3    3  503    0 -0.41621911044E+02 -0.78886648606E+02 -0.22679291407E+02  0.92151652540E+02  0.47000000000E+01 0. -1.
         -5    1    3    3    0  503 -0.29717680322E+01  0.19833355642E+02  0.15699314600E+02  0.25898877971E+02  0.47000000000E+01 0.  1.
<mgrwt>
<rscale>  0 0.11779087E+03</rscale>
<asrwt>0</asrwt>
<pdfrwt beam="1">  1        2 0.12004249E-01 0.11784400E+03</pdfrwt>
<pdfrwt beam="2">  1       -2 0.42852012E-01 0.11784400E+03</pdfrwt>
<totfact> 0.25448815E+03</totfact>
</mgrwt>
</event>
<event>
 8    1  0.6836165E-004  0.1000132E+03  0.7546771E-02  0.1282126E+00
         -1   -1    0    0    0  501 -0.00000000000E+00  0.00000000000E+00  0.13344611776E+02  0.13344611776E+02  0.00000000000E+00 0.  1.
          1   -1    0    0  501    0  0.00000000000E+00 -0.00000000000E+00 -0.73080071239E+03  0.73080071239E+03  0.00000000000E+00 0. -1.
         23    2    1    2    0    0 -0.18435599181E+02 -0.38511626792E+02 -0.32857048780E+03  0.34345481194E+03  0.90441283033E+02 0.  0.
         23    2    1    2    0    0  0.18435599181E+02  0.38511626792E+02 -0.38888561281E+03  0.40069051222E+03  0.86590126562E+02 0.  0.
          5    1    3    3  502    0  0.34928110186E+02 -0.15229881781E+02 -0.17474090703E+03  0.17890890634E+03  0.47000000000E+01 0. -1.
         -5    1    4    4    0  503 -0.30637440933E+02  0.35540000780E+02 -0.18988657809E+03  0.19565466256E+03  0.47000000000E+01 0.  1.
          5    1    4    4  503    0  0.49073040114E+02  0.29716260123E+01 -0.19899903472E+03  0.20503584966E+03  0.47000000000E+01 0. -1.
         -5    1    3    3    0  502 -0.53363709367E+02 -0.23281745011E+02 -0.15382958077E+03  0.16454590560E+03  0.47000000000E+01 0.  1.
<mgrwt>
<rscale>  0 0.99134556E+02</rscale>
<asrwt>0</asrwt>
<pdfrwt beam="1">  1        1 0.11243089E+00 0.10001321E+03</pdfrwt>
<pdfrwt beam="2">  1       -1 0.20530170E-02 0.10001321E+03</pdfrwt>
<totfact> 0.16177539E+04</totfact>
</mgrwt>
</event>
<event>
 8    1  0.6836165E-004  0.9599703E+02  0.7546771E-02  0.1288966E+00
          4   -1    0    0  501    0  0.00000000000E+00  0.00000000000E+00  0.21682035664E+03  0.21682035664E+03  0.00000000000E+00 0. -1.
         -4   -1    0    0    0  501 -0.00000000000E+00 -0.00000000000E+00 -0.42634874905E+02  0.42634874905E+02  0.00000000000E+00 0.  1.
         23    2    1    2    0    0 -0.13060919889E+01  0.29376499307E+02  0.94749151199E+02  0.13488080556E+03  0.91382413336E+02 0.  0.
         23    2    1    2    0    0  0.13060919889E+01 -0.29376499307E+02  0.79436330535E+02  0.12457442599E+03  0.91345346969E+02 0.  0.
          5    1    4    4  502    0 -0.87342161195E+01 -0.60654452385E+02  0.41432384301E+02  0.74121397681E+02  0.47000000000E+01 0. -1.
         -5    1    3    3    0  503  0.33865728809E+02  0.36545651448E+02  0.24208733149E+02  0.55593389788E+02  0.47000000000E+01 0.  1.
          5    1    3    3  503    0 -0.35171820798E+02 -0.71691521406E+01  0.70540418051E+02  0.79287415769E+02  0.47000000000E+01 0. -1.
         -5    1    4    4    0  502  0.10040308108E+02  0.31277953078E+02  0.38003946234E+02  0.50453028304E+02  0.47000000000E+01 0.  1.
<mgrwt>
<rscale>  0 0.95988209E+02</rscale>
<asrwt>0</asrwt>
<pdfrwt beam="1">  1        4 0.33356977E-01 0.95997031E+02</pdfrwt>
<pdfrwt beam="2">  1       -4 0.65592117E-02 0.95997031E+02</pdfrwt>
<totfact> 0.20114567E+03</totfact>
</mgrwt>
</event>
<event>
 8    1  0.6836165E-004  0.1416450E+03  0.7546771E-02  0.1212648E+00
         -1   -1    0    0    0  501 -0.00000000000E+00  0.00000000000E+00  0.10978165484E+04  0.10978165484E+04  0.00000000000E+00 0.  1.
          1   -1    0    0  501    0  0.00000000000E+00 -0.00000000000E+00 -0.22628510740E+02  0.22628510740E+02  0.00000000000E+00 0. -1.
         23    2    1    2    0    0  0.15055438548E+02 -0.10428559065E+03  0.80579899429E+03  0.81815361126E+03  0.94663413091E+02 0.  0.
         23    2    1    2    0    0 -0.15055438548E+02  0.10428559065E+03  0.26938904341E+03  0.30229144791E+03  0.87792437754E+02 0.  0.
          5    1    4    4  502    0 -0.13897959555E+02  0.63029437732E+02  0.58134826054E+02  0.86992018605E+02  0.47000000000E+01 0. -1.
         -5    1    3    3    0  503 -0.24616322855E+02 -0.95810806215E+02  0.62518130609E+03  0.63297664208E+03  0.47000000000E+01 0.  1.
          5    1    3    3  503    0  0.39671761404E+02 -0.84747844326E+01  0.18061768820E+03  0.18517696918E+03  0.47000000000E+01 0. -1.
         -5    1    4    4    0  502 -0.11574789937E+01  0.41256152916E+02  0.21125421735E+03  0.21529942931E+03  0.47000000000E+01 0.  1.
<mgrwt>
<rscale>  0 0.14050721E+03</rscale>
<asrwt>0</asrwt>
<pdfrwt beam="1">  1        1 0.34813102E-02 0.14164502E+03</pdfrwt>
<pdfrwt beam="2">  1       -1 0.16889481E+00 0.14164502E+03</pdfrwt>
<totfact> 0.74819160E+02</totfact>
</mgrwt>
</event>
<event>
 8    1  0.6836165E-004  0.1504446E+03  0.7546771E-02  0.1200808E+00
         -2   -1    0    0    0  501 -0.00000000000E+00  0.00000000000E+00  0.83930670654E+02  0.83930670654E+02  0.00000000000E+00 0.  1.
          2   -1    0    0  501    0  0.00000000000E+00 -0.00000000000E+00 -0.11817784473E+04  0.11817784473E+04  0.00000000000E+00 0. -1.
         23    2    1    2    0    0 -0.66623184208E+02 -0.10090554830E+03  0.97706597995E+01  0.14792015112E+03  0.84642347336E+02 0.  0.
         23    2    1    2    0    0  0.66623184208E+02  0.10090554830E+03 -0.11076184364E+04  0.11177889668E+04  0.89515335402E+02 0.  0.
          5    1    4    4  502    0 -0.45127308633E+01  0.70317516828E+02 -0.62477312011E+03  0.62875150857E+03  0.47000000000E+01 0. -1.
         -5    1    4    4    0  502  0.71135915072E+02  0.30588031472E+02 -0.48284531631E+03  0.48903745825E+03  0.47000000000E+01 0.  1.
          5    1    3    3  503    0 -0.44861595172E+02 -0.12434685300E+01  0.77280023769E+01  0.45781229298E+02  0.47000000000E+01 0. -1.
         -5    1    3    3    0  503 -0.21761589037E+02 -0.99662079770E+02  0.20426574226E+01  0.10213892182E+03  0.47000000000E+01 0.  1.
<mgrwt>
<rscale>  0 0.14972761E+03</rscale>
<asrwt>0</asrwt>
<pdfrwt beam="1">  1        2 0.18181208E+00 0.15044459E+03</pdfrwt>
<pdfrwt beam="2">  1       -2 0.12912410E-01 0.15044459E+03</pdfrwt>
<totfact> 0.90707694E+02</totfact>
</mgrwt>
</event>
<event>
 8    1  0.6836165E-004  0.9581994E+02  0.7546771E-02  0.1289687E+00
          1   -1    0    0  501    0  0.00000000000E+00  0.00000000000E+00  0.24556190782E+03  0.24556190782E+03  0.00000000000E+00 0. -1.
         -1   -1    0    0    0  501 -0.00000000000E+00 -0.00000000000E+00 -0.37652001778E+02  0.37652001778E+02  0.00000000000E+00 0.  1.
         23    2    1    2    0    0  0.34067873898E+01  0.24653712481E+02  0.12067399336E+03  0.15408982288E+03  0.92531341191E+02 0.  0.
         23    2    1    2    0    0 -0.34067873898E+01 -0.24653712481E+02  0.87235912682E+02  0.12912408672E+03  0.91888593252E+02 0.  0.
          5    1    4    4  502    0  0.27980435846E+02  0.14530949148E+02  0.68097665606E+02  0.75189329923E+02  0.47000000000E+01 0. -1.
         -5    1    3    3    0  503  0.29666618591E+01 -0.34058401604E+02  0.28760153480E+02  0.44922291021E+02  0.47000000000E+01 0.  1.
          5    1    3    3  503    0  0.44012553070E+00  0.58712114085E+02  0.91913839884E+02  0.10916753186E+03  0.47000000000E+01 0. -1.
         -5    1    4    4    0  502 -0.31387223236E+02 -0.39184661628E+02  0.19138247076E+02  0.53934756795E+02  0.47000000000E+01 0.  1.
<mgrwt>
<rscale>  0 0.95664426E+02</rscale>
<asrwt>0</asrwt>
<pdfrwt beam="1">  1        1 0.37778754E-01 0.95819940E+02</pdfrwt>
<pdfrwt beam="2">  1       -1 0.57926158E-02 0.95819940E+02</pdfrwt>
<totfact> 0.14446192E+04</totfact>
</mgrwt>
</event>
<event>
 8    1  0.6836165E-004  0.9183644E+02  0.7546771E-02  0.1300108E+00
          2   -1    0    0  501    0  0.00000000000E+00  0.00000000000E+00  0.16609902523E+03  0.16609902523E+03  0.00000000000E+00 0. -1.
         -2   -1    0    0    0  501 -0.00000000000E+00 -0.00000000000E+00 -0.53908934802E+02  0.53908934802E+02  0.00000000000E+00 0.  1.
         23    2    1    2    0    0  0.13938897127E+01 -0.84877158957E+00  0.89135261475E+02  0.12798057366E+03  0.91821942122E+02 0.  0.
         23    2    1    2    0    0 -0.13938897127E+01  0.84877158957E+00  0.23054828949E+02  0.92027386366E+02  0.89077782649E+02 0.  0.
          5    1    3    3  502    0 -0.32491771703E+02 -0.15154488060E+02  0.82815407508E+02  0.90365123014E+02  0.47000000000E+01 0. -1.
         -5    1    4    4    0  503  0.27626216087E+02 -0.22873586502E+02 -0.14303790370E+02  0.38898550020E+02  0.47000000000E+01 0.  1.
          5    1    4    4  503    0 -0.29020105800E+02  0.23722358091E+02  0.37358619319E+02  0.53128836346E+02  0.47000000000E+01 0. -1.
         -5    1    3    3    0  502  0.33885661416E+02  0.14305716470E+02  0.63198539673E+01  0.37615450648E+02  0.47000000000E+01 0.  1.
<mgrwt>
<rscale>  0 0.91142694E+02</rscale>
<asrwt>0</asrwt>
<pdfrwt beam="1">  1        2 0.25553696E-01 0.91836444E+02</pdfrwt>
<pdfrwt beam="2">  1       -2 0.82936823E-02 0.91836444E+02</pdfrwt>
<totfact> 0.16812444E+04</totfact>
</mgrwt>
</event>
<event>
 8    1  0.6836165E-004  0.9236330E+02  0.7546771E-02  0.1297621E+00
         -2   -1    0    0    0  501 -0.00000000000E+00  0.00000000000E+00  0.16331149844E+02  0.16331149844E+02  0.00000000000E+00 0. -1.
          2   -1    0    0  501    0  0.00000000000E+00 -0.00000000000E+00 -0.58240800162E+03  0.58240800162E+03  0.00000000000E+00 0.  1.
         23    2    1    2    0    0  0.29210028734E+01  0.81701551678E+01 -0.18486123938E+03  0.20665104913E+03  0.91954850832E+02 0.  0.
         23    2    1    2    0    0 -0.29210028734E+01 -0.81701551678E+01 -0.38121561239E+03  0.39208810232E+03  0.91282271872E+02 0.  0.
          5    1    4    4  502    0  0.40516040702E+02 -0.18517562076E+02 -0.14967122260E+03  0.15623064531E+03  0.47000000000E+01 0.  1.
         -5    1    4    4    0  502 -0.43437043575E+02  0.10347406908E+02 -0.23154438979E+03  0.23585745701E+03  0.47000000000E+01 0. -1.
          5    1    3    3  503    0 -0.30717721814E+02 -0.15292121491E+02 -0.28261267191E+02  0.44701416492E+02  0.47000000000E+01 0. -1.
         -5    1    3    3    0  503  0.33638724688E+02  0.23462276659E+02 -0.15659997219E+03  0.16194963264E+03  0.47000000000E+01 0.  1.
<mgrwt>
<rscale>  0 0.92195442E+02</rscale>
<asrwt>0</asrwt>
<pdfrwt beam="1">  1        2 0.89601226E-01 0.92363295E+02</pdfrwt>
<pdfrwt beam="2">  1       -2 0.25124847E-02 0.92363295E+02</pdfrwt>
<totfact> 0.26046477E+04</totfact>
</mgrwt>
</event>
<event>
 8    1  0.6836165E-004  0.1148067E+03  0.7546771E-02  0.1252375E+00
          1   -1    0    0  501    0  0.00000000000E+00  0.00000000000E+00  0.15413632700E+03  0.15413632700E+03  0.00000000000E+00 0. -1.
         -1   -1    0    0    0  501 -0.00000000000E+00 -0.00000000000E+00 -0.84749571262E+02  0.84749571262E+02  0.00000000000E+00 0.  1.
         23    2    1    2    0    0  0.46699910296E+02 -0.46046155655E+02  0.35734130609E+02  0.11924865038E+03  0.92963339305E+02 0.  0.
         23    2    1    2    0    0 -0.46699910296E+02  0.46046155655E+02  0.33652625126E+02  0.11963724788E+03  0.94230790244E+02 0.  0.
          5    1    3    3  502    0 -0.25717005908E+02 -0.19967500798E+01  0.19844726520E+02  0.32882435652E+02  0.47000000000E+01 0. -1.
         -5    1    3    3    0  502  0.72416916204E+02 -0.44049405576E+02  0.15889404088E+02  0.86366214728E+02  0.47000000000E+01 0.  1.
          5    1    4    4  503    0  0.97950803454E+01 -0.22561656993E+02  0.13246094395E+02  0.28328801280E+02  0.47000000000E+01 0.  1.
         -5    1    4    4    0  503 -0.56494990642E+02  0.68607812648E+02  0.20406530731E+02  0.91308446599E+02  0.47000000000E+01 0. -1.
<mgrwt>
<rscale>  0 0.11454629E+03</rscale>
<asrwt>0</asrwt>
<pdfrwt beam="1">  1        1 0.23713281E-01 0.11480667E+03</pdfrwt>
<pdfrwt beam="2">  1       -1 0.13038396E-01 0.11480667E+03</pdfrwt>
<totfact> 0.76884179E+03</totfact>
</mgrwt>
</event>
<event>
 8    1  0.6836165E-004  0.9771162E+02  0.7546771E-02  0.1287264E+00
          3   -1    0    0  501    0  0.00000000000E+00  0.00000000000E+00  0.16834693385E+02  0.16834693385E+02  0.00000000000E+00 0. -1.
         -3   -1    0    0    0  501 -0.00000000000E+00 -0.00000000000E+00 -0.54772005533E+03  0.54772005533E+03  0.00000000000E+00 0.  1.
         23    2    1    2    0    0 -0.16440698613E+02  0.29672467563E+02 -0.25281257259E+03  0.27103829530E+03  0.91634102599E+02 0.  0.
         23    2    1    2    0    0  0.16440698613E+02 -0.29672467563E+02 -0.27807278935E+03  0.29351645341E+03  0.87616667031E+02 0.  0.
          5    1    4    4  502    0  0.52234580829E+02 -0.12222067084E+02 -0.15774438639E+03  0.16668296793E+03  0.47000000000E+01 0. -1.
         -5    1    4    4    0  502 -0.35793882217E+02 -0.17450400479E+02 -0.12032840296E+03  0.12683348549E+03  0.47000000000E+01 0.  1.
          5    1    3    3  503    0  0.12543205303E+02 -0.22802824865E+02 -0.28820665126E+02  0.39115490019E+02  0.47000000000E+01 0. -1.
         -5    1    3    3    0  503 -0.28983903916E+02  0.52475292428E+02 -0.22399190746E+03  0.23192280528E+03  0.47000000000E+01 0.  1.
<mgrwt>
<rscale>  0 0.96758463E+02</rscale>
<asrwt>0</asrwt>
<pdfrwt beam="1">  1        3 0.25899530E-02 0.97711620E+02</pdfrwt>
<pdfrwt beam="2">  1       -3 0.84264619E-01 0.97711620E+02</pdfrwt>
<totfact> 0.18400007E+03</totfact>
</mgrwt>
</event>
<event>
 8    1  0.6836165E-004  0.9685429E+02  0.7546771E-02  0.1287275E+00
         -2   -1    0    0    0  501 -0.00000000000E+00  0.00000000000E+00  0.91860438284E+02  0.91860438284E+02  0.00000000000E+00 0. -1.
          2   -1    0    0  501    0  0.00000000000E+00 -0.00000000000E+00 -0.13427717512E+03  0.13427717512E+03  0.00000000000E+00 0.  1.
         23    2    1    2    0    0  0.20572985127E+02  0.23028326087E+02 -0.76871173156E+02  0.12333750876E+03  0.91375118523E+02 0.  0.
         23    2    1    2    0    0 -0.20572985127E+02 -0.23028326087E+02  0.34454436316E+02  0.10280010465E+03  0.91799792019E+02 0.  0.
          5    1    4    4  502    0  0.35131525171E+02 -0.15182339110E+02  0.23917676593E+02  0.45374802868E+02  0.47000000000E+01 0. -1.
         -5    1    3    3    0  503 -0.30884856250E+02 -0.40353644182E+01 -0.50046643293E+02  0.59134719214E+02  0.47000000000E+01 0.  1.
          5    1    3    3  503    0  0.51457841377E+02  0.27063690505E+02 -0.26824529863E+02  0.64202789545E+02  0.47000000000E+01 0. -1.
         -5    1    4    4    0  502 -0.55704510298E+02 -0.78459869773E+01  0.10536759723E+02  0.57425301781E+02  0.47000000000E+01 0.  1.
<mgrwt>
<rscale>  0 0.96753528E+02</rscale>
<asrwt>0</asrwt>
<pdfrwt beam="1">  1        2 0.20658027E-01 0.96854289E+02</pdfrwt>
<pdfrwt beam="2">  1       -2 0.14132375E-01 0.96854289E+02</pdfrwt>
<totfact> 0.92552754E+03</totfact>
</mgrwt>
</event>
<event>
 8    1  0.6836165E-004  0.1118929E+03  0.7546771E-02  0.1258004E+00
         -1   -1    0    0    0  501 -0.00000000000E+00  0.00000000000E+00  0.23570004778E+03  0.23570004778E+03  0.00000000000E+00 0.  1.
          1   -1    0    0  501    0  0.00000000000E+00 -0.00000000000E+00 -0.60929014717E+02  0.60929014717E+02  0.00000000000E+00 0. -1.
         23    2    1    2    0    0  0.56143285519E+02  0.88576969096E+01  0.31875825492E+02  0.11634474741E+03  0.96382076626E+02 0.  0.
         23    2    1    2    0    0 -0.56143285519E+02 -0.88576969096E+01  0.14289520757E+03  0.18028431509E+03  0.94089673279E+02 0.  0.
          5    1    3    3  502    0 -0.35144839081E+01 -0.33439206039E+02 -0.49860626662E+01  0.34314470979E+02  0.47000000000E+01 0. -1.
         -5    1    3    3    0  502  0.59657769427E+02  0.42296902949E+02  0.36861888158E+02  0.82030276426E+02  0.47000000000E+01 0.  1.
          5    1    4    4  503    0 -0.50982601124E+02  0.28680188951E+02  0.41325148584E+02  0.71774903421E+02  0.47000000000E+01 0. -1.
         -5    1    4    4    0  503 -0.51606843943E+01 -0.37537885861E+02  0.10157005899E+03  0.10850941167E+03  0.47000000000E+01 0.  1.
<mgrwt>
<rscale>  0 0.11139755E+03</rscale>
<asrwt>0</asrwt>
<pdfrwt beam="1">  1        1 0.93736947E-02 0.11189295E+03</pdfrwt>
<pdfrwt beam="2">  1       -1 0.36261545E-01 0.11189295E+03</pdfrwt>
<totfact> 0.48479059E+03</totfact>
</mgrwt>
</event>
<event>
 8    1  0.6836165E-004  0.9329059E+02  0.7546771E-02  0.1295611E+00
          1   -1    0    0  501    0  0.00000000000E+00  0.00000000000E+00  0.31487347452E+03  0.31487347452E+03  0.00000000000E+00 0. -1.
         -1   -1    0    0    0  501 -0.00000000000E+00 -0.00000000000E+00 -0.37612364597E+02  0.37612364597E+02  0.00000000000E+00 0.  1.
         23    2    1    2    0    0  0.21570656076E+02 -0.80944372855E+01  0.23112248969E+03  0.24924032537E+03  0.90400892892E+02 0.  0.
         23    2    1    2    0    0 -0.21570656076E+02  0.80944372855E+01  0.46138620234E+02  0.10324551374E+03  0.89443002586E+02 0.  0.
          5    1    3    3  502    0  0.38853181582E+02  0.30520249815E+02  0.14318715492E+03  0.15154440505E+03  0.47000000000E+01 0. -1.
         -5    1    3    3    0  502 -0.17282525505E+02 -0.38614687100E+02  0.87935334762E+02  0.97695920321E+02  0.47000000000E+01 0.  1.
          5    1    4    4  503    0 -0.89768728634E+00  0.34156014903E+02  0.58115229218E+02  0.67578909902E+02  0.47000000000E+01 0. -1.
         -5    1    4    4    0  503 -0.20672968790E+02 -0.26061577617E+02 -0.11976608985E+02  0.35666603837E+02  0.47000000000E+01 0.  1.
<mgrwt>
<rscale>  0 0.93057743E+02</rscale>
<asrwt>0</asrwt>
<pdfrwt beam="1">  1        1 0.48442071E-01 0.93290592E+02</pdfrwt>
<pdfrwt beam="2">  1       -1 0.57865178E-02 0.93290592E+02</pdfrwt>
<totfact> 0.10652137E+04</totfact>
</mgrwt>
</event>
<event>
 8    1  0.6836165E-004  0.1015562E+03  0.7546771E-02  0.1277438E+00
          2   -1    0    0  501    0  0.00000000000E+00  0.00000000000E+00  0.10585744033E+04  0.10585744033E+04  0.00000000000E+00 0. -1.
         -2   -1    0    0    0  501 -0.00000000000E+00 -0.00000000000E+00 -0.10356244550E+02  0.10356244550E+02  0.00000000000E+00 0.  1.
         23    2    1    2    0    0  0.23139213134E+02  0.38206841997E+02  0.65966717472E+03  0.66732695609E+03  0.90384174253E+02 0.  0.
         23    2    1    2    0    0 -0.23139213134E+02 -0.38206841997E+02  0.38855098404E+03  0.40160369177E+03  0.91205658208E+02 0.  0.
          5    1    3    3  502    0  0.44646601014E+02  0.55483583949E+02  0.41858611687E+03  0.42462710030E+03  0.47000000000E+01 0. -1.
         -5    1    4    4    0  503 -0.44312063735E+02 -0.10765864555E+02  0.89920964926E+02  0.10093231774E+03  0.47000000000E+01 0.  1.
          5    1    4    4  503    0  0.21172850600E+02 -0.27440977442E+02  0.29863001911E+03  0.30067137403E+03  0.47000000000E+01 0. -1.
         -5    1    3    3    0  502 -0.21507387880E+02 -0.17276741952E+02  0.24108105785E+03  0.24269985578E+03  0.47000000000E+01 0.  1.
<mgrwt>
<rscale>  0 0.10137140E+03</rscale>
<asrwt>0</asrwt>
<pdfrwt beam="1">  1        2 0.16285751E+00 0.10155618E+03</pdfrwt>
<pdfrwt beam="2">  1       -2 0.15932692E-02 0.10155618E+03</pdfrwt>
<totfact> 0.24281876E+04</totfact>
</mgrwt>
</event>
<event>
 8    1  0.6836165E-004  0.2561409E+03  0.7546771E-02  0.1109556E+00
          2   -1    0    0  501    0  0.00000000000E+00  0.00000000000E+00  0.23216442246E+04  0.23216442246E+04  0.00000000000E+00 0. -1.
         -2   -1    0    0    0  501 -0.00000000000E+00 -0.00000000000E+00 -0.31518207453E+02  0.31518207453E+02  0.00000000000E+00 0.  1.
         23    2    1    2    0    0 -0.18635082185E+03 -0.14973682803E+03  0.15254370025E+04  0.15467149998E+04  0.90672462983E+02 0.  0.
         23    2    1    2    0    0  0.18635082185E+03  0.14973682803E+03  0.76468901463E+03  0.80644743223E+03  0.91980570714E+02 0.  0.
          5    1    3    3  502    0 -0.14819852495E+03 -0.69283744618E+02  0.10925845632E+04  0.11047742565E+04  0.47000000000E+01 0. -1.
         -5    1    4    4    0  503  0.13236856963E+03  0.14350583671E+03  0.51294691504E+03  0.54886427379E+03  0.47000000000E+01 0.  1.
          5    1    4    4  503    0  0.53982252220E+02  0.62309913207E+01  0.25174209958E+03  0.25758315844E+03  0.47000000000E+01 0. -1.
         -5    1    3    3    0  502 -0.38152296903E+02 -0.80453083411E+02  0.43285243933E+03  0.44194074334E+03  0.47000000000E+01 0.  1.
<mgrwt>
<rscale>  0 0.25602413E+03</rscale>
<asrwt>0</asrwt>
<pdfrwt beam="1">  1        2 0.35717590E+00 0.25614092E+03</pdfrwt>
<pdfrwt beam="2">  1       -2 0.48489568E-02 0.25614092E+03</pdfrwt>
<totfact> 0.10306160E+03</totfact>
</mgrwt>
</event>
<event>
 8    1  0.6836165E-004  0.1316506E+03  0.7546771E-02  0.1238789E+00
         -2   -1    0    0    0  501 -0.00000000000E+00  0.00000000000E+00  0.37503244822E+02  0.37503244822E+02  0.00000000000E+00 0.  1.
          2   -1    0    0  501    0  0.00000000000E+00 -0.00000000000E+00 -0.36123971803E+03  0.36123971803E+03  0.00000000000E+00 0. -1.
         23    2    1    2    0    0  0.39776768898E+02 -0.11411141634E+02 -0.16506878561E+03  0.19256996603E+03  0.90128143980E+02 0.  0.
         23    2    1    2    0    0 -0.39776768898E+02  0.11411141634E+02 -0.15866768760E+03  0.20617299682E+03  0.12497785417E+03 0.  0.
          5    1    4    4  502    0  0.22209422185E+02 -0.43151154867E+02 -0.64097916994E+02  0.80535169728E+02  0.47000000000E+01 0.  1.
         -5    1    4    4    0  502 -0.61986191083E+02  0.54562296501E+02 -0.94569770604E+02  0.12563782709E+03  0.47000000000E+01 0.  1.
          5    1    3    3  503    0 -0.26045079468E+02  0.36220911082E+01 -0.76982384379E+02  0.81485233099E+02  0.47000000000E+01 0. -1.
         -5    1    3    3    0  503  0.65821848366E+02 -0.15033232742E+02 -0.88086401232E+02  0.11108473293E+03  0.47000000000E+01 0.  1.
<mgrwt>
<rscale>  0 0.12264971E+03</rscale>
<asrwt>0</asrwt>
<pdfrwt beam="1">  1        2 0.55575338E-01 0.13165056E+03</pdfrwt>
<pdfrwt beam="2">  1       -2 0.57697303E-02 0.13165056E+03</pdfrwt>
<totfact> 0.13207923E+04</totfact>
</mgrwt>
</event>
<event>
 8    1  0.6836165E-004  0.1013174E+03  0.7546771E-02  0.1281322E+00
          1   -1    0    0  501    0  0.00000000000E+00  0.00000000000E+00  0.41699123721E+03  0.41699123721E+03  0.00000000000E+00 0. -1.
         -1   -1    0    0    0  501 -0.00000000000E+00 -0.00000000000E+00 -0.23418906784E+02  0.23418906784E+02  0.00000000000E+00 0.  1.
         23    2    1    2    0    0 -0.21319539936E+02  0.21593902788E+02  0.17223866865E+03  0.19982838097E+03  0.96666454589E+02 0.  0.
         23    2    1    2    0    0  0.21319539936E+02 -0.21593902788E+02  0.22133366178E+03  0.24058176302E+03  0.89275839076E+02 0.  0.
          5    1    3    3  502    0 -0.41145687766E+02 -0.25602088678E+02  0.99307819337E+02  0.11060093828E+03  0.47000000000E+01 0. -1.
         -5    1    4    4    0  503 -0.49613562400E+01  0.32834472514E+02  0.72866419142E+02  0.80214229907E+02  0.47000000000E+01 0.  1.
          5    1    4    4  503    0  0.26280896176E+02 -0.54428375302E+02  0.14846724264E+03  0.16036753312E+03  0.47000000000E+01 0. -1.
         -5    1    3    3    0  502  0.19826147830E+02  0.47195991466E+02  0.72930849313E+02  0.89227442695E+02  0.47000000000E+01 0.  1.
<mgrwt>
<rscale>  0 0.99513486E+02</rscale>
<asrwt>0</asrwt>
<pdfrwt beam="1">  1        1 0.64152493E-01 0.10131744E+03</pdfrwt>
<pdfrwt beam="2">  1       -1 0.36029090E-02 0.10131744E+03</pdfrwt>
<totfact> 0.15154238E+04</totfact>
</mgrwt>
</event>
<event>
 8    1  0.6836165E-004  0.1629629E+03  0.7546771E-02  0.1185941E+00
          1   -1    0    0  501    0  0.00000000000E+00  0.00000000000E+00  0.81968154957E+03  0.81968154957E+03  0.00000000000E+00 0. -1.
         -1   -1    0    0    0  501 -0.00000000000E+00 -0.00000000000E+00 -0.43881655087E+02  0.43881655087E+02  0.00000000000E+00 0.  1.
         23    2    1    2    0    0  0.63866529501E+02  0.11723189580E+03  0.16156048221E+03  0.22807367123E+03  0.89964210159E+02 0.  0.
         23    2    1    2    0    0 -0.63866529501E+02 -0.11723189580E+03  0.61423941227E+03  0.63548953343E+03  0.93459298786E+02 0.  0.
          5    1    3    3  502    0 -0.20862085540E+02  0.39681874576E+02  0.34778783255E+02  0.56934449568E+02  0.47000000000E+01 0. -1.
         -5    1    3    3    0  502  0.84728615041E+02  0.77550021228E+02  0.12678169896E+03  0.17113922166E+03  0.47000000000E+01 0.  1.
          5    1    4    4  503    0 -0.83818862350E+02 -0.11475501685E+03  0.52750109194E+03  0.54632756435E+03  0.47000000000E+01 0. -1.
         -5    1    4    4    0  503  0.19952332849E+02 -0.24768789547E+01  0.86738320333E+02  0.89161969077E+02  0.47000000000E+01 0.  1.
<mgrwt>
<rscale>  0 0.16246584E+03</rscale>
<asrwt>0</asrwt>
<pdfrwt beam="1">  1        1 0.12610484E+00 0.16296285E+03</pdfrwt>
<pdfrwt beam="2">  1       -1 0.67510244E-02 0.16296285E+03</pdfrwt>
<totfact> 0.24506206E+03</totfact>
</mgrwt>
</event>
<event>
 8    1  0.6836165E-004  0.1611046E+03  0.7546771E-02  0.1187898E+00
          1   -1    0    0  501    0  0.00000000000E+00  0.00000000000E+00  0.10574906301E+04  0.10574906301E+04  0.00000000000E+00 0. -1.
         -1   -1    0    0    0  501 -0.00000000000E+00 -0.00000000000E+00 -0.24363605221E+02  0.24363605221E+02  0.00000000000E+00 0.  1.
         23    2    1    2    0    0 -0.54378283347E+01 -0.13295140801E+03  0.54576766731E+03  0.56904923714E+03  0.90824229889E+02 0.  0.
         23    2    1    2    0    0  0.54378283347E+01  0.13295140801E+03  0.48735935754E+03  0.51280499816E+03  0.88000999336E+02 0.  0.
          5    1    3    3  502    0  0.26535682477E+02 -0.41372635391E+01  0.11957733731E+03  0.12264619437E+03  0.47000000000E+01 0. -1.
         -5    1    3    3    0  502 -0.31973510811E+02 -0.12881414447E+03  0.42619033000E+03  0.44640304277E+03  0.47000000000E+01 0.  1.
          5    1    4    4  503    0  0.10682789868E+02  0.51555334854E+02  0.34198256115E+03  0.34604369186E+03  0.47000000000E+01 0. -1.
         -5    1    4    4    0  503 -0.52449615334E+01  0.81396073155E+02  0.14537679640E+03  0.16676130630E+03  0.47000000000E+01 0.  1.
<mgrwt>
<rscale>  0 0.16070949E+03</rscale>
<asrwt>0</asrwt>
<pdfrwt beam="1">  1        1 0.16269083E+00 0.16110459E+03</pdfrwt>
<pdfrwt beam="2">  1       -1 0.37482478E-02 0.16110459E+03</pdfrwt>
<totfact> 0.38739800E+03</totfact>
</mgrwt>
</event>
<event>
 8    1  0.6836165E-004  0.1103074E+03  0.7546771E-02  0.1260623E+00
         -2   -1    0    0    0  501 -0.00000000000E+00  0.00000000000E+00  0.55926008572E+02  0.55926008572E+02  0.00000000000E+00 0.  1.
          2   -1    0    0  501    0  0.00000000000E+00 -0.00000000000E+00 -0.23363122045E+03  0.23363122045E+03  0.00000000000E+00 0. -1.
         23    2    1    2    0    0  0.10489832515E+02 -0.60490124791E+02 -0.12930679570E+03  0.16909923342E+03  0.90028948377E+02 0.  0.
         23    2    1    2    0    0 -0.10489832515E+02  0.60490124791E+02 -0.48398416181E+02  0.12045799560E+03  0.91644040901E+02 0.  0.
          5    1    3    3  502    0 -0.34177460868E+02 -0.65432321694E+01 -0.65106124101E+02  0.73971684542E+02  0.47000000000E+01 0. -1.
         -5    1    4    4    0  503  0.77508315631E+01 -0.22985700843E+02 -0.11902837306E+02  0.27425998051E+02  0.47000000000E+01 0.  1.
          5    1    4    4  503    0 -0.18240664079E+02  0.83475825634E+02 -0.36495578875E+02  0.93031997553E+02  0.47000000000E+01 0. -1.
         -5    1    3    3    0  502  0.44667293384E+02 -0.53946892622E+02 -0.64200671596E+02  0.95127548876E+02  0.47000000000E+01 0.  1.
<mgrwt>
<rscale>  0 0.10997133E+03</rscale>
<asrwt>0</asrwt>
<pdfrwt beam="1">  1        2 0.35943264E-01 0.11030740E+03</pdfrwt>
<pdfrwt beam="2">  1       -2 0.86040015E-02 0.11030740E+03</pdfrwt>
<totfact> 0.11211504E+04</totfact>
</mgrwt>
</event>
<event>
 8    1  0.6836165E-004  0.1048777E+03  0.7546771E-02  0.1271979E+00
          1   -1    0    0  501    0  0.00000000000E+00  0.00000000000E+00  0.34813317168E+03  0.34813317168E+03  0.00000000000E+00 0. -1.
         -1   -1    0    0    0  501 -0.00000000000E+00 -0.00000000000E+00 -0.34183822142E+02  0.34183822142E+02  0.00000000000E+00 0.  1.
         23    2    1    2    0    0  0.24726085230E+02  0.43465270976E+02  0.21639835125E+03  0.23908459944E+03  0.88501921998E+02 0.  0.
         23    2    1    2    0    0 -0.24726085230E+02 -0.43465270976E+02  0.97550998296E+02  0.14323239438E+03  0.92188461642E+02 0.  0.
          5    1    3    3  502    0  0.45993426822E+02 -0.58516032840E+01  0.11829748068E+03  0.12714566649E+03  0.47000000000E+01 0. -1.
         -5    1    3    3    0  502 -0.21267341592E+02  0.49316874260E+02  0.98100870567E+02  0.11193893295E+03  0.47000000000E+01 0.  1.
          5    1    4    4  503    0 -0.51774220372E+02 -0.54122191528E+02  0.75407223908E+02  0.10638665766E+03  0.47000000000E+01 0. -1.
         -5    1    4    4    0  503  0.27048135142E+02  0.10656920552E+02  0.22143774388E+02  0.36845736720E+02  0.47000000000E+01 0.  1.
<mgrwt>
<rscale>  0 0.10406185E+03</rscale>
<asrwt>0</asrwt>
<pdfrwt beam="1">  1        1 0.53558947E-01 0.10487765E+03</pdfrwt>
<pdfrwt beam="2">  1       -1 0.52590498E-02 0.10487765E+03</pdfrwt>
<totfact> 0.10945936E+04</totfact>
</mgrwt>
</event>
<event>
 8    1  0.6836165E-004  0.1031870E+03  0.7546771E-02  0.1277978E+00
         -1   -1    0    0    0  501 -0.00000000000E+00  0.00000000000E+00  0.23545001344E+02  0.23545001344E+02  0.00000000000E+00 0.  1.
          1   -1    0    0  501    0  0.00000000000E+00 -0.00000000000E+00 -0.41808469535E+03  0.41808469535E+03  0.00000000000E+00 0. -1.
         23    2    1    2    0    0  0.22483905652E+02 -0.20405991601E+02 -0.19682953113E+03  0.21861206487E+03  0.90152315984E+02 0.  0.
         23    2    1    2    0    0 -0.22483905652E+02  0.20405991601E+02 -0.19771016289E+03  0.22301763183E+03  0.98618583905E+02 0.  0.
          5    1    3    3  502    0 -0.31737898140E+02  0.87239082362E+01 -0.74827055586E+02  0.81881493642E+02  0.47000000000E+01 0. -1.
         -5    1    4    4    0  503  0.14314027386E+02 -0.32745119821E+02 -0.94518301422E+02  0.10115796338E+03  0.47000000000E+01 0.  1.
          5    1    4    4  503    0 -0.36797933038E+02  0.53151111422E+02 -0.10319186146E+03  0.12185966844E+03  0.47000000000E+01 0. -1.
         -5    1    3    3    0  502  0.54221803792E+02 -0.29129899837E+02 -0.12200247554E+03  0.13673057123E+03  0.47000000000E+01 0.  1.
<mgrwt>
<rscale>  0 0.10111044E+03</rscale>
<asrwt>0</asrwt>
<pdfrwt beam="1">  1        1 0.64320723E-01 0.10318699E+03</pdfrwt>
<pdfrwt beam="2">  1       -1 0.36223079E-02 0.10318699E+03</pdfrwt>
<totfact> 0.15012387E+04</totfact>
</mgrwt>
</event>
<event>
 8    1  0.6836165E-004  0.1012621E+03  0.7546771E-02  0.1279657E+00
         -2   -1    0    0    0  501 -0.00000000000E+00  0.00000000000E+00  0.44904884383E+02  0.44904884383E+02  0.00000000000E+00 0.  1.
          2   -1    0    0  501    0  0.00000000000E+00 -0.00000000000E+00 -0.30059224803E+03  0.30059224803E+03  0.00000000000E+00 0. -1.
         23    2    1    2    0    0  0.41855528881E+02  0.52853429092E+01 -0.40136020762E+02  0.10892618866E+03  0.92055386948E+02 0.  0.
         23    2    1    2    0    0 -0.41855528881E+02 -0.52853429092E+01 -0.21555134288E+03  0.23657094375E+03  0.87884070570E+02 0.  0.
          5    1    3    3  502    0 -0.15064677183E+02  0.30544646787E+02  0.56239245622E+00  0.34384971008E+02  0.47000000000E+01 0. -1.
         -5    1    3    3    0  502  0.56920206064E+02 -0.25259303878E+02 -0.40698413218E+02  0.74541217653E+02  0.47000000000E+01 0.  1.
          5    1    4    4  503    0 -0.26826013730E+02 -0.42750314945E+02 -0.15933433688E+03  0.16720270736E+03  0.47000000000E+01 0. -1.
         -5    1    4    4    0  503 -0.15029515152E+02  0.37464972036E+02 -0.56217006002E+02  0.69368236385E+02  0.47000000000E+01 0.  1.
<mgrwt>
<rscale>  0 0.10030447E+03</rscale>
<asrwt>0</asrwt>
<pdfrwt beam="1">  1        2 0.46244960E-01 0.10126211E+03</pdfrwt>
<pdfrwt beam="2">  1       -2 0.69084439E-02 0.10126211E+03</pdfrwt>
<totfact> 0.11938598E+04</totfact>
</mgrwt>
</event>
<event>
 8    1  0.6836165E-004  0.1067211E+03  0.7546771E-02  0.1267630E+00
          1   -1    0    0  501    0  0.00000000000E+00  0.00000000000E+00  0.34342801194E+02  0.34342801194E+02  0.00000000000E+00 0. -1.
         -1   -1    0    0    0  501 -0.00000000000E+00 -0.00000000000E+00 -0.59041881495E+03  0.59041881495E+03  0.00000000000E+00 0.  1.
         23    2    1    2    0    0 -0.12435067615E+02  0.53907017683E+02 -0.48831911167E+03  0.49984491480E+03  0.91262185892E+02 0.  0.
         23    2    1    2    0    0  0.12435067615E+02 -0.53907017683E+02 -0.67756902091E+02  0.12491670134E+03  0.89177278670E+02 0.  0.
          5    1    4    4  502    0 -0.20163663103E+02 -0.55136630278E+02 -0.11937765668E+02  0.60093440219E+02  0.47000000000E+01 0. -1.
         -5    1    3    3    0  503  0.23650655236E+02  0.51940589753E+02 -0.40328484574E+03  0.40733025318E+03  0.47000000000E+01 0.  1.
          5    1    3    3  503    0 -0.36085722851E+02  0.19664279294E+01 -0.85034265930E+02  0.92514661621E+02  0.47000000000E+01 0. -1.
         -5    1    4    4    0  502  0.32598730718E+02  0.12296125958E+01 -0.55819136422E+02  0.64823261122E+02  0.47000000000E+01 0.  1.
<mgrwt>
<rscale>  0 0.10627392E+03</rscale>
<asrwt>0</asrwt>
<pdfrwt beam="1">  1        1 0.52835085E-02 0.10672106E+03</pdfrwt>
<pdfrwt beam="2">  1       -1 0.90833654E-01 0.10672106E+03</pdfrwt>
<totfact> 0.18459244E+03</totfact>
</mgrwt>
</event>
<event>
 8    1  0.6836165E-004  0.1251710E+03  0.7546771E-02  0.1235429E+00
         -1   -1    0    0    0  501 -0.00000000000E+00  0.00000000000E+00  0.13354907959E+03  0.13354907959E+03  0.00000000000E+00 0.  1.
          1   -1    0    0  501    0  0.00000000000E+00 -0.00000000000E+00 -0.16340416120E+03  0.16340416120E+03  0.00000000000E+00 0. -1.
         23    2    1    2    0    0 -0.80209974207E+02 -0.24226274393E+02 -0.95111806903E+02  0.15720695531E+03  0.92990422368E+02 0.  0.
         23    2    1    2    0    0  0.80209974207E+02  0.24226274393E+02  0.65256725290E+02  0.13974628548E+03  0.90829685545E+02 0.  0.
          5    1    3    3  502    0 -0.11430989504E+01  0.28740582775E+02 -0.29830167073E+02  0.41704395945E+02  0.47000000000E+01 0.  1.
         -5    1    3    3    0  502 -0.79066875257E+02 -0.52966857168E+02 -0.65281639830E+02  0.11550255937E+03  0.47000000000E+01 0.  1.
          5    1    4    4  503    0  0.90370881335E+02 -0.60964483812E+01  0.42154555138E+02  0.10001579573E+03  0.47000000000E+01 0. -1.
         -5    1    4    4    0  503 -0.10160907128E+02  0.30322722774E+02  0.23102170153E+02  0.39730489751E+02  0.47000000000E+01 0.  1.
<mgrwt>
<rscale>  0 0.12476985E+03</rscale>
<asrwt>0</asrwt>
<pdfrwt beam="1">  1        1 0.25139102E-01 0.12517097E+03</pdfrwt>
<pdfrwt beam="2">  1       -1 0.20546012E-01 0.12517097E+03</pdfrwt>
<totfact> 0.35137248E+03</totfact>
</mgrwt>
</event>
<event>
 8    1  0.6836165E-004  0.1008266E+03  0.7546771E-02  0.1278931E+00
         -1   -1    0    0    0  501 -0.00000000000E+00  0.00000000000E+00  0.64032864327E+02  0.64032864327E+02  0.00000000000E+00 0.  1.
          1   -1    0    0  501    0  0.00000000000E+00 -0.00000000000E+00 -0.19729488823E+03  0.19729488823E+03  0.00000000000E+00 0. -1.
         23    2    1    2    0    0 -0.13299201947E+02  0.41571932936E+02 -0.12537518768E+03  0.16088799092E+03  0.90889567910E+02 0.  0.
         23    2    1    2    0    0  0.13299201947E+02 -0.41571932936E+02 -0.78868362218E+01  0.10043976164E+03  0.90115754185E+02 0.  0.
          5    1    3    3  502    0 -0.63636445620E+01 -0.28183619879E+02 -0.49284402712E+02  0.57322375668E+02  0.47000000000E+01 0. -1.
         -5    1    3    3    0  502 -0.69355573852E+01  0.69755552815E+02 -0.76090784973E+02  0.10356561525E+03  0.47000000000E+01 0.  1.
          5    1    4    4  503    0 -0.18279906754E+02 -0.38369365405E+02 -0.37426332893E+02  0.56825905944E+02  0.47000000000E+01 0. -1.
         -5    1    4    4    0  503  0.31579108701E+02 -0.32025675310E+01  0.29539496671E+02  0.43613855697E+02  0.47000000000E+01 0.  1.
<mgrwt>
<rscale>  0 0.10065192E+03</rscale>
<asrwt>0</asrwt>
<pdfrwt beam="1">  1        1 0.30353060E-01 0.10082662E+03</pdfrwt>
<pdfrwt beam="2">  1       -1 0.98512098E-02 0.10082662E+03</pdfrwt>
<totfact> 0.85948206E+03</totfact>
</mgrwt>
</event>
<event>
 8    1  0.6836165E-004  0.9489665E+02  0.7546771E-02  0.1293150E+00
         -3   -1    0    0    0  501 -0.00000000000E+00  0.00000000000E+00  0.71237580182E+02  0.71237580182E+02  0.00000000000E+00 0.  1.
          3   -1    0    0  501    0  0.00000000000E+00 -0.00000000000E+00 -0.14531177473E+03  0.14531177473E+03  0.00000000000E+00 0. -1.
         23    2    1    2    0    0  0.98306234086E+01  0.21485080718E+02  0.54416412786E+01  0.95052545707E+02  0.91908243023E+02 0.  0.
         23    2    1    2    0    0 -0.98306234086E+01 -0.21485080718E+02 -0.79515835822E+02  0.12149680920E+03  0.88771936159E+02 0.  0.
          5    1    4    4  502    0 -0.30384784401E+02 -0.45780458090E+02 -0.67485815736E+02  0.87152227692E+02  0.47000000000E+01 0. -1.
         -5    1    4    4    0  502  0.20554160993E+02  0.24295377372E+02 -0.12030020086E+02  0.34344581509E+02  0.47000000000E+01 0.  1.
          5    1    3    3  503    0  0.16344411375E+01  0.53586327107E+02  0.21479474733E+02  0.57945005699E+02  0.47000000000E+01 0. -1.
         -5    1    3    3    0  503  0.81961822711E+01 -0.32101246389E+02 -0.16037833455E+02  0.37107540008E+02  0.47000000000E+01 0.  1.
<mgrwt>
<rscale>  0 0.94128830E+02</rscale>
<asrwt>0</asrwt>
<pdfrwt beam="1">  1        3 0.22355658E-01 0.94896654E+02</pdfrwt>
<pdfrwt beam="2">  1       -3 0.10959628E-01 0.94896654E+02</pdfrwt>
<totfact> 0.24861749E+03</totfact>
</mgrwt>
</event>
<event>
 8    1  0.6836165E-004  0.9453133E+02  0.7546771E-02  0.1294072E+00
         -1   -1    0    0    0  501 -0.00000000000E+00  0.00000000000E+00  0.79651068195E+02  0.79651068195E+02  0.00000000000E+00 0.  1.
          1   -1    0    0  501    0  0.00000000000E+00 -0.00000000000E+00 -0.18093180642E+03  0.18093180642E+03  0.00000000000E+00 0. -1.
         23    2    1    2    0    0  0.10735782129E+02  0.22749956460E+02  0.31299793817E+02  0.99578361390E+02  0.91122749230E+02 0.  0.
         23    2    1    2    0    0 -0.10735782129E+02 -0.22749956460E+02 -0.13258053204E+03  0.16100451322E+03  0.87818211469E+02 0.  0.
          5    1    3    3  502    0  0.24325914297E+02 -0.29962875641E+02  0.20235863210E+02  0.43830402496E+02  0.47000000000E+01 0. -1.
         -5    1    4    4    0  503  0.37650264429E+02 -0.18800765241E+02 -0.55926748490E+02  0.70149143843E+02  0.47000000000E+01 0.  1.
          5    1    4    4  503    0 -0.48386046558E+02 -0.39491912186E+01 -0.76653783552E+02  0.90855369382E+02  0.47000000000E+01 0. -1.
         -5    1    3    3    0  502 -0.13590132168E+02  0.52712832101E+02  0.11063930607E+02  0.55747958894E+02  0.47000000000E+01 0.  1.
<mgrwt>
<rscale>  0 0.93725808E+02</rscale>
<asrwt>0</asrwt>
<pdfrwt beam="1">  1        1 0.27835662E-01 0.94531333E+02</pdfrwt>
<pdfrwt beam="2">  1       -1 0.12254011E-01 0.94531333E+02</pdfrwt>
<totfact> 0.68256026E+03</totfact>
</mgrwt>
</event>
<event>
 8    1  0.6836165E-004  0.9624266E+02  0.7546771E-02  0.1289128E+00
          1   -1    0    0  501    0  0.00000000000E+00  0.00000000000E+00  0.38597288004E+03  0.38597288004E+03  0.00000000000E+00 0. -1.
         -1   -1    0    0    0  501 -0.00000000000E+00 -0.00000000000E+00 -0.43734583780E+02  0.43734583780E+02  0.00000000000E+00 0.  1.
         23    2    1    2    0    0  0.17037719983E+02  0.10733347189E+02  0.31726126310E+03  0.33153786779E+03  0.94112486267E+02 0.  0.
         23    2    1    2    0    0 -0.17037719983E+02 -0.10733347189E+02  0.24977033164E+02  0.98169596033E+02  0.92778924091E+02 0.  0.
          5    1    4    4  502    0  0.22591196211E+02  0.14713146546E+02  0.40042079649E+02  0.48500484226E+02  0.47000000000E+01 0. -1.
         -5    1    3    3    0  503 -0.31318419458E+02  0.11097773583E+02  0.22281228270E+03  0.22532511467E+03  0.47000000000E+01 0.  1.
          5    1    3    3  503    0  0.48356139442E+02 -0.36442639418E+00  0.94448980395E+02  0.10621275312E+03  0.47000000000E+01 0. -1.
         -5    1    4    4    0  502 -0.39628916195E+02 -0.25446493735E+02 -0.15065046484E+02  0.49669111808E+02  0.47000000000E+01 0.  1.
<mgrwt>
<rscale>  0 0.95915078E+02</rscale>
<asrwt>0</asrwt>
<pdfrwt beam="1">  1        1 0.59380441E-01 0.96242655E+02</pdfrwt>
<pdfrwt beam="2">  1       -1 0.67283978E-02 0.96242655E+02</pdfrwt>
<totfact> 0.66495683E+03</totfact>
</mgrwt>
</event>
<event>
 8    1  0.6836165E-004  0.2051133E+03  0.7546771E-02  0.1145547E+00
         -2   -1    0    0    0  501 -0.00000000000E+00  0.00000000000E+00  0.41854063130E+03  0.41854063130E+03  0.00000000000E+00 0.  1.
          2   -1    0    0  501    0  0.00000000000E+00 -0.00000000000E+00 -0.11858510270E+03  0.11858510270E+03  0.00000000000E+00 0. -1.
         23    2    1    2    0    0 -0.15964990907E+03  0.88088558234E+02  0.44714674426E+02  0.20968204742E+03  0.93378109544E+02 0.  0.
         23    2    1    2    0    0  0.15964990907E+03 -0.88088558234E+02  0.25524085418E+03  0.32744368658E+03  0.93935013081E+02 0.  0.
          5    1    4    4  502    0  0.26318358184E+02 -0.36626222731E+02  0.12885291991E+03  0.13659905248E+03  0.47000000000E+01 0. -1.
         -5    1    3    3    0  503 -0.33970626971E+02 -0.20066486962E+01  0.42905471641E+02  0.54963620992E+02  0.47000000000E+01 0.  1.
          5    1    3    3  503    0 -0.12567928210E+03  0.90095206930E+02  0.18092027846E+01  0.15471842642E+03  0.47000000000E+01 0. -1.
         -5    1    4    4    0  502  0.13333155089E+03 -0.51462335504E+02  0.12638793427E+03  0.19084463410E+03  0.47000000000E+01 0.  1.
<mgrwt>
<rscale>  0 0.20504968E+03</rscale>
<asrwt>0</asrwt>
<pdfrwt beam="1">  1        2 0.18243862E-01 0.20511332E+03</pdfrwt>
<pdfrwt beam="2">  1       -2 0.64390866E-01 0.20511332E+03</pdfrwt>
<totfact> 0.70201189E+02</totfact>
</mgrwt>
</event>
<event>
 8    1  0.6836165E-004  0.1367991E+03  0.7546771E-02  0.1217804E+00
          1   -1    0    0  501    0  0.00000000000E+00  0.00000000000E+00  0.88561470432E+03  0.88561470432E+03  0.00000000000E+00 0. -1.
         -1   -1    0    0    0  501 -0.00000000000E+00 -0.00000000000E+00 -0.27391446196E+02  0.27391446196E+02  0.00000000000E+00 0.  1.
         23    2    1    2    0    0 -0.76808897278E+02 -0.67719110966E+02  0.21043914844E+03  0.25099528100E+03  0.90711141521E+02 0.  0.
         23    2    1    2    0    0  0.76808897278E+02  0.67719110966E+02  0.64778410969E+03  0.66201086952E+03  0.90269894814E+02 0.  0.
          5    1    4    4  502    0  0.30216504095E+02  0.73885979611E+02  0.51289688436E+03  0.51909293878E+03  0.47000000000E+01 0. -1.
         -5    1    4    4    0  502  0.46592393183E+02 -0.61668686452E+01  0.13488722532E+03  0.14291793074E+03  0.47000000000E+01 0. -1.
          5    1    3    3  503    0 -0.10221293606E+01 -0.20169670646E+02  0.12662265438E+03  0.12830918503E+03  0.47000000000E+01 0. -1.
         -5    1    3    3    0  503 -0.75786767917E+02 -0.47549440320E+02  0.83816494064E+02  0.12268609597E+03  0.47000000000E+01 0.  1.
<mgrwt>
<rscale>  0 0.13672600E+03</rscale>
<asrwt>0</asrwt>
<pdfrwt beam="1">  1        1 0.13624839E+00 0.13679911E+03</pdfrwt>
<pdfrwt beam="2">  1       -1 0.42140693E-02 0.13679911E+03</pdfrwt>
<totfact> 0.43548877E+03</totfact>
</mgrwt>
</event>
<event>
 8    1  0.6836165E-004  0.9417111E+02  0.7546771E-02  0.1293370E+00
          4   -1    0    0  501    0  0.00000000000E+00  0.00000000000E+00  0.29948212298E+03  0.29948212298E+03  0.00000000000E+00 0. -1.
         -4   -1    0    0    0  501 -0.00000000000E+00 -0.00000000000E+00 -0.89171685053E+02  0.89171685053E+02  0.00000000000E+00 0.  1.
         23    2    1    2    0    0 -0.15585223478E+02  0.21083329298E+02 -0.53994916045E+02  0.10807312659E+03  0.89871818537E+02 0.  0.
         23    2    1    2    0    0  0.15585223478E+02 -0.21083329298E+02  0.26430535397E+03  0.28058068144E+03  0.90447734611E+02 0.  0.
          5    1    3    3  502    0  0.30604823952E+02 -0.11824914283E+02 -0.61193455091E+01  0.33704899293E+02  0.47000000000E+01 0. -1.
         -5    1    3    3    0  502 -0.46190047430E+02  0.32908243580E+02 -0.47875570536E+02  0.74368227296E+02  0.47000000000E+01 0.  1.
          5    1    4    4  503    0  0.32237319138E+02  0.20142251390E+01  0.24177386035E+03  0.24396719328E+03  0.47000000000E+01 0. -1.
         -5    1    4    4    0  503 -0.16652095661E+02 -0.23097554437E+02  0.22531493625E+02  0.36613488168E+02  0.47000000000E+01 0.  1.
<mgrwt>
<rscale>  0 0.94032556E+02</rscale>
<asrwt>0</asrwt>
<pdfrwt beam="1">  1        4 0.46074172E-01 0.94171114E+02</pdfrwt>
<pdfrwt beam="2">  1       -4 0.13718721E-01 0.94171114E+02</pdfrwt>
<totfact> 0.31216316E+02</totfact>
</mgrwt>
</event>
<event>
 8    1  0.6836165E-004  0.9498550E+02  0.7546771E-02  0.1292973E+00
         -2   -1    0    0    0  501 -0.00000000000E+00  0.00000000000E+00  0.18583983317E+03  0.18583983317E+03  0.00000000000E+00 0. -1.
          2   -1    0    0  501    0  0.00000000000E+00 -0.00000000000E+00 -0.75253365931E+02  0.75253365931E+02  0.00000000000E+00 0.  1.
         23    2    1    2    0    0 -0.11292326467E+02 -0.21945721806E+02  0.13472519826E+03  0.16308848772E+03  0.88531601351E+02 0.  0.
         23    2    1    2    0    0  0.11292326467E+02  0.21945721806E+02 -0.24138731019E+02  0.98004711385E+02  0.91723027511E+02 0.  0.
          5    1    4    4  502    0 -0.20624669021E+02 -0.16580850109E+01 -0.47274757484E+02  0.51818133055E+02  0.47000000000E+01 0. -1.
         -5    1    3    3    0  503  0.28899211692E+02 -0.33841817763E+02  0.42677696907E+02  0.61837762566E+02  0.47000000000E+01 0.  1.
          5    1    3    3  503    0 -0.40191538159E+02  0.11896095957E+02  0.92047501355E+02  0.10125072515E+03  0.47000000000E+01 0. -1.
         -5    1    4    4    0  502  0.31916995488E+02  0.23603806817E+02  0.23136026465E+02  0.46186578330E+02  0.47000000000E+01 0.  1.
<mgrwt>
<rscale>  0 0.94206450E+02</rscale>
<asrwt>0</asrwt>
<pdfrwt beam="1">  1        2 0.11577441E-01 0.94985500E+02</pdfrwt>
<pdfrwt beam="2">  1       -2 0.28590744E-01 0.94985500E+02</pdfrwt>
<totfact> 0.55084039E+03</totfact>
</mgrwt>
</event>
<event>
 8    1  0.6836165E-004  0.9862970E+02  0.7546771E-02  0.1288206E+00
          2   -1    0    0  501    0  0.00000000000E+00  0.00000000000E+00  0.81738030407E+03  0.81738030407E+03  0.00000000000E+00 0. -1.
         -2   -1    0    0    0  501 -0.00000000000E+00 -0.00000000000E+00 -0.14585260040E+02  0.14585260040E+02  0.00000000000E+00 0.  1.
         23    2    1    2    0    0  0.29401720690E+02  0.22943372752E+02  0.20525130357E+03  0.22771893816E+03  0.91306941944E+02 0.  0.
         23    2    1    2    0    0 -0.29401720690E+02 -0.22943372752E+02  0.59754374046E+03  0.60424662595E+03  0.81637023923E+02 0.  0.
          5    1    3    3  502    0  0.21923510537E+02 -0.10554132809E+01  0.20044591663E+03  0.20169880938E+03  0.47000000000E+01 0. -1.
         -5    1    3    3    0  502  0.74782101538E+01  0.23998786033E+02  0.48053869401E+01  0.26020128782E+02  0.47000000000E+01 0.  1.
          5    1    4    4  503    0 -0.57508857894E-01  0.24544489769E+02  0.83503279244E+02  0.87162623467E+02  0.47000000000E+01 0. -1.
         -5    1    4    4    0  503 -0.29344211833E+02 -0.47487862521E+02  0.51404046122E+03  0.51708400248E+03  0.47000000000E+01 0.  1.
<mgrwt>
<rscale>  0 0.96331227E+02</rscale>
<asrwt>0</asrwt>
<pdfrwt beam="1">  1        2 0.12575078E+00 0.98629697E+02</pdfrwt>
<pdfrwt beam="2">  1       -2 0.22438868E-02 0.98629697E+02</pdfrwt>
<totfact> 0.20777118E+04</totfact>
</mgrwt>
</event>
<event>
 7    1  0.6836165E-004  0.3129402E+03  0.7546771E-02  0.1123694E+00
          1   -1    0    0  501    0  0.00000000000E+00  0.00000000000E+00  0.82318206237E+02  0.82318206237E+02  0.00000000000E+00 0. -1.
         -1   -1    0    0    0  501 -0.00000000000E+00 -0.00000000000E+00 -0.60773153828E+03  0.60773153828E+03  0.00000000000E+00 0.  1.
         23    2    1    2    0    0 -0.36017157189E+02 -0.13031010272E+02 -0.27571175875E+02  0.10202051807E+03  0.90448734253E+02 0.  0.
          5    1    1    2  502    0  0.10209629518E+03 -0.76769630442E+02 -0.44787960828E+03  0.46576331238E+03  0.47000000000E+01 0. -1.
         -5    1    1    2    0  502 -0.66079137996E+02  0.89800640713E+02 -0.49962547894E+02  0.12226591407E+03  0.47000000000E+01 0.  1.
          5    1    3    3  503    0  0.12965020386E+02 -0.33398297495E+02  0.92211267008E+01  0.37291516553E+02  0.47000000000E+01 0. -1.
         -5    1    3    3    0  503 -0.48982177575E+02  0.20367287224E+02 -0.36792302575E+02  0.64729001519E+02  0.47000000000E+01 0.  1.
<mgrwt>
<rscale>  0 0.23423444E+03</rscale>
<asrwt>0</asrwt>
<pdfrwt beam="1">  1        1 0.12664339E-01 0.31294018E+03</pdfrwt>
<pdfrwt beam="2">  1       -1 0.93497160E-01 0.31294018E+03</pdfrwt>
<totfact> 0.54650134E+02</totfact>
</mgrwt>
</event>
<event>
 8    1  0.6836165E-004  0.2712270E+03  0.7546771E-02  0.1100808E+00
         -2   -1    0    0    0  501 -0.00000000000E+00  0.00000000000E+00  0.55947231359E+02  0.55947231359E+02  0.00000000000E+00 0.  1.
          2   -1    0    0  501    0  0.00000000000E+00 -0.00000000000E+00 -0.15531561284E+04  0.15531561284E+04  0.00000000000E+00 0. -1.
         23    2    1    2    0    0  0.25109037593E+03 -0.41293350032E+02 -0.42654091082E+03  0.50461523338E+03  0.89150813344E+02 0.  0.
         23    2    1    2    0    0 -0.25109037593E+03  0.41293350032E+02 -0.10706679862E+04  0.11044881263E+04  0.93875273285E+02 0.  0.
          5    1    3    3  502    0  0.10771297631E+03  0.89196216595E+01 -0.24518977601E+03  0.26799582305E+03  0.47000000000E+01 0. -1.
         -5    1    3    3    0  502  0.14337739962E+03 -0.50212971692E+02 -0.18135113481E+03  0.23661941033E+03  0.47000000000E+01 0.  1.
          5    1    4    4  503    0 -0.62148664036E+02  0.40285886064E+02 -0.43617068944E+03  0.44243911376E+03  0.47000000000E+01 0. -1.
         -5    1    4    4    0  503 -0.18894171190E+03  0.10074639682E+01 -0.63449729674E+03  0.66204901257E+03  0.47000000000E+01 0.  1.
<mgrwt>
<rscale>  0 0.27082642E+03</rscale>
<asrwt>0</asrwt>
<pdfrwt beam="1">  1        2 0.23894712E+00 0.27122700E+03</pdfrwt>
<pdfrwt beam="2">  1       -2 0.86072654E-02 0.27122700E+03</pdfrwt>
<totfact> 0.10780325E+03</totfact>
</mgrwt>
</event>
<event>
 8    1  0.6836165E-004  0.1489868E+03  0.7546771E-02  0.1202872E+00
          1   -1    0    0  501    0  0.00000000000E+00  0.00000000000E+00  0.30971932139E+02  0.30971932139E+02  0.00000000000E+00 0. -1.
         -1   -1    0    0    0  501 -0.00000000000E+00 -0.00000000000E+00 -0.72331231153E+03  0.72331231153E+03  0.00000000000E+00 0.  1.
         23    2    1    2    0    0  0.26683632692E+02  0.10877631386E+03 -0.27317797899E+03  0.30943126709E+03  0.92613163930E+02 0.  0.
         23    2    1    2    0    0 -0.26683632692E+02 -0.10877631386E+03 -0.41916240040E+03  0.44485297658E+03  0.98248410442E+02 0.  0.
          5    1    4    4  502    0 -0.42563794011E+02 -0.46175075014E+01 -0.13773827318E+03  0.14431534857E+03  0.47000000000E+01 0.  1.
         -5    1    4    4    0  502  0.15880161320E+02 -0.10415880636E+03 -0.28142412722E+03  0.30053762800E+03  0.47000000000E+01 0. -1.
          5    1    3    3  503    0  0.34067380132E+02  0.79140686097E+01 -0.12560963403E+03  0.13047256045E+03  0.47000000000E+01 0. -1.
         -5    1    3    3    0  503 -0.73837474405E+01  0.10086224525E+03 -0.14756834497E+03  0.17895870663E+03  0.47000000000E+01 0.  1.
<mgrwt>
<rscale>  0 0.14806464E+03</rscale>
<asrwt>0</asrwt>
<pdfrwt beam="1">  1        1 0.47649125E-02 0.14898675E+03</pdfrwt>
<pdfrwt beam="2">  1       -1 0.11127882E+00 0.14898675E+03</pdfrwt>
<totfact> 0.13791702E+03</totfact>
</mgrwt>
</event>
<event>
 8    1  0.6836165E-004  0.1043495E+03  0.7546771E-02  0.1272615E+00
          3   -1    0    0  501    0  0.00000000000E+00  0.00000000000E+00  0.29478692879E+03  0.29478692879E+03  0.00000000000E+00 0. -1.
         -3   -1    0    0    0  501 -0.00000000000E+00 -0.00000000000E+00 -0.13105870580E+03  0.13105870580E+03  0.00000000000E+00 0.  1.
         23    2    1    2    0    0  0.29600514887E+02 -0.32435620810E+02 -0.99118335364E+02  0.14392101501E+03  0.94660203762E+02 0.  0.
         23    2    1    2    0    0 -0.29600514887E+02  0.32435620810E+02  0.26284655835E+03  0.28192461959E+03  0.92004988523E+02 0.  0.
          5    1    3    3  502    0  0.55144342137E+02 -0.34071039674E+02 -0.33049472615E+02  0.72911534440E+02  0.47000000000E+01 0. -1.
         -5    1    3    3    0  502 -0.25543827250E+02  0.16354188648E+01 -0.66068862748E+02  0.71009480566E+02  0.47000000000E+01 0.  1.
          5    1    4    4  503    0  0.44240419028E+01  0.54843906452E+02  0.19479089687E+03  0.20246730533E+03  0.47000000000E+01 0. -1.
         -5    1    4    4    0  503 -0.34024556790E+02 -0.22408285642E+02  0.68055661480E+02  0.79457314262E+02  0.47000000000E+01 0.  1.
<mgrwt>
<rscale>  0 0.10374359E+03</rscale>
<asrwt>0</asrwt>
<pdfrwt beam="1">  1        3 0.45351835E-01 0.10434948E+03</pdfrwt>
<pdfrwt beam="2">  1       -3 0.20162878E-01 0.10434948E+03</pdfrwt>
<totfact> 0.24192077E+02</totfact>
</mgrwt>
</event>
<event>
 8    1  0.6836165E-004  0.9608327E+02  0.7546771E-02  0.1288867E+00
         -2   -1    0    0    0  501 -0.00000000000E+00  0.00000000000E+00  0.13383061941E+03  0.13383061941E+03  0.00000000000E+00 0.  1.
          2   -1    0    0  501    0  0.00000000000E+00 -0.00000000000E+00 -0.91429991088E+02  0.91429991088E+02  0.00000000000E+00 0. -1.
         23    2    1    2    0    0 -0.25475633332E+02  0.17889031231E+02 -0.34804800615E+02  0.10200204943E+03  0.90686374992E+02 0.  0.
         23    2    1    2    0    0  0.25475633332E+02 -0.17889031231E+02  0.77205428941E+02  0.12325856108E+03  0.90900876170E+02 0.  0.
          5    1    3    3  502    0 -0.50234818000E+02 -0.15254730318E+02 -0.28405022707E+02  0.59876364715E+02  0.47000000000E+01 0. -1.
         -5    1    4    4    0  503  0.42892802054E+02  0.18456031981E+02  0.66323922932E+02  0.81248817453E+02  0.47000000000E+01 0.  1.
          5    1    4    4  503    0 -0.17417168722E+02 -0.36345063213E+02  0.10881506009E+02  0.42009743623E+02  0.47000000000E+01 0. -1.
         -5    1    3    3    0  502  0.24759184668E+02  0.33143761549E+02 -0.63997779088E+01  0.42125684711E+02  0.47000000000E+01 0.  1.
<mgrwt>
<rscale>  0 0.96032502E+02</rscale>
<asrwt>0</asrwt>
<pdfrwt beam="1">  1        2 0.14066153E-01 0.96083269E+02</pdfrwt>
<pdfrwt beam="2">  1       -2 0.20589326E-01 0.96083269E+02</pdfrwt>
<totfact> 0.77197945E+03</totfact>
</mgrwt>
</event>
<event>
 8    1  0.6836165E-004  0.1016452E+03  0.7546771E-02  0.1277791E+00
          2   -1    0    0  501    0  0.00000000000E+00  0.00000000000E+00  0.59390444106E+03  0.59390444106E+03  0.00000000000E+00 0. -1.
         -2   -1    0    0    0  501 -0.00000000000E+00 -0.00000000000E+00 -0.29224296377E+02  0.29224296377E+02  0.00000000000E+00 0.  1.
         23    2    1    2    0    0  0.42055761333E+02 -0.11624636253E+01  0.80176527632E+02  0.12807772376E+03  0.90584708188E+02 0.  0.
         23    2    1    2    0    0 -0.42055761333E+02  0.11624636253E+01  0.48450361705E+03  0.49505101367E+03  0.92529524060E+02 0.  0.
          5    1    3    3  502    0  0.22111336756E+02 -0.15753381961E+02  0.94976257847E+02  0.98892162535E+02  0.47000000000E+01 0. -1.
         -5    1    4    4    0  503  0.13585332522E+02  0.29098379598E+02  0.90778512351E+02  0.96405939960E+02  0.47000000000E+01 0.  1.
          5    1    4    4  503    0 -0.55641093855E+02 -0.27935915972E+02  0.39372510470E+03  0.39864507371E+03  0.47000000000E+01 0. -1.
         -5    1    3    3    0  502  0.19944424577E+02  0.14590918336E+02 -0.14799730215E+02  0.29185561225E+02  0.47000000000E+01 0.  1.
<mgrwt>
<rscale>  0 0.10120052E+03</rscale>
<asrwt>0</asrwt>
<pdfrwt beam="1">  1        2 0.91369905E-01 0.10164522E+03</pdfrwt>
<pdfrwt beam="2">  1       -2 0.44960460E-02 0.10164522E+03</pdfrwt>
<totfact> 0.10969755E+04</totfact>
</mgrwt>
</event>
<event>
 8    1  0.6836165E-004  0.9997441E+02  0.7546771E-02  0.1281133E+00
         -1   -1    0    0    0  501 -0.00000000000E+00  0.00000000000E+00  0.25417128520E+02  0.25417128520E+02  0.00000000000E+00 0.  1.
          1   -1    0    0  501    0  0.00000000000E+00 -0.00000000000E+00 -0.40018128288E+03  0.40018128288E+03  0.00000000000E+00 0. -1.
         23    2    1    2    0    0 -0.39001959282E+02  0.20630517619E+01 -0.15076748507E+03  0.18090250668E+03  0.92029741705E+02 0.  0.
         23    2    1    2    0    0  0.39001959282E+02 -0.20630517619E+01 -0.22399666929E+03  0.24469590472E+03  0.90422170528E+02 0.  0.
          5    1    4    4  502    0  0.44096988991E+02 -0.37492541408E+02 -0.17083209143E+03  0.18043261502E+03  0.47000000000E+01 0. -1.
         -5    1    3    3    0  503 -0.51649481952E+02 -0.13813908377E+02 -0.36870494844E+02  0.65115408627E+02  0.47000000000E+01 0.  1.
          5    1    3    3  503    0  0.12647522671E+02  0.15876960139E+02 -0.11389699023E+03  0.11578709805E+03  0.47000000000E+01 0. -1.
         -5    1    4    4    0  502 -0.50950297095E+01  0.35429489646E+02 -0.53164577853E+02  0.64263289697E+02  0.47000000000E+01 0.  1.
<mgrwt>
<rscale>  0 0.99602888E+02</rscale>
<asrwt>0</asrwt>
<pdfrwt beam="1">  1        1 0.61566345E-01 0.99974409E+02</pdfrwt>
<pdfrwt beam="2">  1       -1 0.39103278E-02 0.99974409E+02</pdfrwt>
<totfact> 0.14146756E+04</totfact>
</mgrwt>
</event>
<event>
 8    1  0.6836165E-004  0.1249403E+03  0.7546771E-02  0.1235538E+00
          2   -1    0    0  501    0  0.00000000000E+00  0.00000000000E+00  0.73038236029E+03  0.73038236029E+03  0.00000000000E+00 0. -1.
         -2   -1    0    0    0  501 -0.00000000000E+00 -0.00000000000E+00 -0.45445635619E+02  0.45445635619E+02  0.00000000000E+00 0.  1.
         23    2    1    2    0    0 -0.81245185513E+02 -0.27657669670E+02  0.59798023079E+02  0.13851307756E+03  0.90798360280E+02 0.  0.
         23    2    1    2    0    0  0.81245185513E+02  0.27657669670E+02  0.62513870159E+03  0.63731491835E+03  0.89477271217E+02 0.  0.
          5    1    4    4  502    0  0.65206879871E+02  0.56189279967E+02  0.52006531695E+03  0.52716145179E+03  0.47000000000E+01 0. -1.
         -5    1    3    3    0  503 -0.66795510678E+02 -0.64043657036E+01 -0.61809658967E+01  0.67549614997E+02  0.47000000000E+01 0.  1.
          5    1    3    3  503    0 -0.14449674835E+02 -0.21253303967E+02  0.65978988975E+02  0.70963462560E+02  0.47000000000E+01 0. -1.
         -5    1    4    4    0  502  0.16038305642E+02 -0.28531610297E+02  0.10507338465E+03  0.11015346656E+03  0.47000000000E+01 0.  1.
<mgrwt>
<rscale>  0 0.12470038E+03</rscale>
<asrwt>0</asrwt>
<pdfrwt beam="1">  1        2 0.11236651E+00 0.12494026E+03</pdfrwt>
<pdfrwt beam="2">  1       -2 0.69916367E-02 0.12494026E+03</pdfrwt>
<totfact> 0.44998814E+03</totfact>
</mgrwt>
</event>
<event>
 8    1  0.6836165E-004  0.1739870E+03  0.7546771E-02  0.1173774E+00
          2   -1    0    0  501    0  0.00000000000E+00  0.00000000000E+00  0.21835642144E+03  0.21835642144E+03  0.00000000000E+00 0. -1.
         -2   -1    0    0    0  501 -0.00000000000E+00 -0.00000000000E+00 -0.15436414115E+03  0.15436414115E+03  0.00000000000E+00 0.  1.
         23    2    1    2    0    0 -0.12027821978E+03  0.86423667566E+02 -0.27627764102E+02  0.17608455544E+03  0.91140423777E+02 0.  0.
         23    2    1    2    0    0  0.12027821978E+03 -0.86423667566E+02  0.91620044393E+02  0.19663600716E+03  0.91299432127E+02 0.  0.
          5    1    4    4  502    0  0.10521936742E+03 -0.10513285248E+03  0.72259285216E+02  0.16543133394E+03  0.47000000000E+01 0. -1.
         -5    1    3    3    0  503 -0.93121152603E+02  0.10080834460E+03 -0.45962487118E+01  0.13739391145E+03  0.47000000000E+01 0.  1.
          5    1    3    3  503    0 -0.27157067176E+02 -0.14384677030E+02 -0.23031515390E+02  0.38690643986E+02  0.47000000000E+01 0. -1.
         -5    1    4    4    0  502  0.15058852356E+02  0.18709184910E+02  0.19360759177E+02  0.31204673211E+02  0.47000000000E+01 0.  1.
<mgrwt>
<rscale>  0 0.17396618E+03</rscale>
<asrwt>0</asrwt>
<pdfrwt beam="1">  1        2 0.33593296E-01 0.17398703E+03</pdfrwt>
<pdfrwt beam="2">  1       -2 0.23748329E-01 0.17398703E+03</pdfrwt>
<totfact> 0.23641901E+03</totfact>
</mgrwt>
</event>
<event>
 8    1  0.6836165E-004  0.1385882E+03  0.7546771E-02  0.1215474E+00
          1   -1    0    0  501    0  0.00000000000E+00  0.00000000000E+00  0.11751617608E+04  0.11751617608E+04  0.00000000000E+00 0. -1.
         -1   -1    0    0    0  501 -0.00000000000E+00 -0.00000000000E+00 -0.72211107661E+02  0.72211107661E+02  0.00000000000E+00 0.  1.
         23    2    1    2    0    0 -0.98724731607E+02 -0.32117897139E+02  0.11007562885E+04  0.11094462964E+04  0.91807113099E+02 0.  0.
         23    2    1    2    0    0  0.98724731607E+02  0.32117897139E+02  0.21943646715E+01  0.13792657207E+03  0.90778808653E+02 0.  0.
          5    1    3    3  502    0 -0.30532973502E+02  0.29338071595E+02  0.23562776664E+03  0.23944836464E+03  0.47000000000E+01 0. -1.
         -5    1    4    4    0  503  0.10510879321E+03  0.51260115932E+02 -0.46728184657E+00  0.11703745661E+03  0.47000000000E+01 0.  1.
          5    1    4    4  503    0 -0.63840616075E+01 -0.19142218792E+02  0.26616465181E+01  0.20889115469E+02  0.47000000000E+01 0. -1.
         -5    1    3    3    0  502 -0.68191758105E+02 -0.61455968734E+02  0.86512852186E+03  0.86999793178E+03  0.47000000000E+01 0.  1.
<mgrwt>
<rscale>  0 0.13841809E+03</rscale>
<asrwt>0</asrwt>
<pdfrwt beam="1">  1        1 0.18079410E+00 0.13858816E+03</pdfrwt>
<pdfrwt beam="2">  1       -1 0.11109402E-01 0.13858816E+03</pdfrwt>
<totfact> 0.62701142E+02</totfact>
</mgrwt>
</event>
<event>
 8    1  0.6836165E-004  0.9245319E+02  0.7546771E-02  0.1302282E+00
          1   -1    0    0  501    0  0.00000000000E+00  0.00000000000E+00  0.17947241504E+03  0.17947241504E+03  0.00000000000E+00 0. -1.
         -1   -1    0    0    0  501 -0.00000000000E+00 -0.00000000000E+00 -0.83809832548E+02  0.83809832548E+02  0.00000000000E+00 0.  1.
         23    2    1    2    0    0 -0.93712995801E+01 -0.98957454717E+01 -0.44810498977E+02  0.95114832698E+02  0.82783473872E+02 0.  0.
         23    2    1    2    0    0  0.93712995801E+01  0.98957454717E+01  0.14047308147E+03  0.16816741489E+03  0.91443128659E+02 0.  0.
          5    1    3    3  502    0 -0.21225215691E+02  0.12167825713E+02  0.15706766328E+02  0.29450946881E+02  0.47000000000E+01 0. -1.
         -5    1    4    4    0  503 -0.13774889936E+02  0.41973384898E+02  0.10797804691E+03  0.11675984433E+03  0.47000000000E+01 0.  1.
          5    1    4    4  503    0  0.23146189516E+02 -0.32077639427E+02  0.32495034561E+02  0.51407570565E+02  0.47000000000E+01 0. -1.
         -5    1    3    3    0  502  0.11853916111E+02 -0.22063571185E+02 -0.60517265305E+02  0.65663885817E+02  0.47000000000E+01 0.  1.
<mgrwt>
<rscale>  0 0.90235858E+02</rscale>
<asrwt>0</asrwt>
<pdfrwt beam="1">  1        1 0.27611141E-01 0.92453193E+02</pdfrwt>
<pdfrwt beam="2">  1       -1 0.12893820E-01 0.92453193E+02</pdfrwt>
<totfact> 0.63661137E+03</totfact>
</mgrwt>
</event>
<event>
 8    1  0.6836165E-004  0.1066542E+03  0.7546771E-02  0.1267542E+00
         -1   -1    0    0    0  501 -0.00000000000E+00  0.00000000000E+00  0.26815402218E+02  0.26815402218E+02  0.00000000000E+00 0.  1.
          1   -1    0    0  501    0  0.00000000000E+00 -0.00000000000E+00 -0.83134443882E+03  0.83134443882E+03  0.00000000000E+00 0. -1.
         23    2    1    2    0    0 -0.49582122036E+02  0.19468045288E+02 -0.98774546633E+02  0.14439201002E+03  0.90858405676E+02 0.  0.
         23    2    1    2    0    0  0.49582122036E+02 -0.19468045288E+02 -0.70575448997E+03  0.71376783102E+03  0.92399809916E+02 0.  0.
          5    1    4    4  502    0  0.67167366032E+02 -0.11851458605E+01 -0.63304747934E+03  0.63661924313E+03  0.47000000000E+01 0. -1.
         -5    1    4    4    0  502 -0.17585243996E+02 -0.18282899427E+02 -0.72707010629E+02  0.77148587884E+02  0.47000000000E+01 0.  1.
          5    1    3    3  503    0 -0.44186224806E+02 -0.28823193602E+02 -0.69807551909E+02  0.87626384472E+02  0.47000000000E+01 0. -1.
         -5    1    3    3    0  503 -0.53958972295E+01  0.48291238890E+02 -0.28966994724E+02  0.56765625547E+02  0.47000000000E+01 0.  1.
<mgrwt>
<rscale>  0 0.10631947E+03</rscale>
<asrwt>0</asrwt>
<pdfrwt beam="1">  1        1 0.12789913E+00 0.10665419E+03</pdfrwt>
<pdfrwt beam="2">  1       -1 0.41254471E-02 0.10665419E+03</pdfrwt>
<totfact> 0.49016274E+03</totfact>
</mgrwt>
</event>
<event>
 8    1  0.6836165E-004  0.1071594E+03  0.7546771E-02  0.1266838E+00
         -4   -1    0    0    0  501 -0.00000000000E+00  0.00000000000E+00  0.31554990263E+02  0.31554990263E+02  0.00000000000E+00 0.  1.
          4   -1    0    0  501    0  0.00000000000E+00 -0.00000000000E+00 -0.38212011835E+03  0.38212011835E+03  0.00000000000E+00 0. -1.
         23    2    1    2    0    0  0.26127329506E+02 -0.49334254414E+02 -0.12133939236E+03  0.16063841621E+03  0.89246549604E+02 0.  0.
         23    2    1    2    0    0 -0.26127329506E+02  0.49334254414E+02 -0.22922573572E+03  0.25303669241E+03  0.91469250463E+02 0.  0.
          5    1    3    3  502    0 -0.16927372633E+02  0.14260330355E+02 -0.53392917629E+02  0.57989538876E+02  0.47000000000E+01 0. -1.
         -5    1    4    4    0  503 -0.28260040862E+02 -0.10709274833E+02 -0.23229262700E+02  0.38405821467E+02  0.47000000000E+01 0.  1.
          5    1    4    4  503    0  0.21327113564E+01  0.60043529247E+02 -0.20599647302E+03  0.21463087094E+03  0.47000000000E+01 0. -1.
         -5    1    3    3    0  502  0.43054702139E+02 -0.63594584770E+02 -0.67946474734E+02  0.10264887733E+03  0.47000000000E+01 0.  1.
<mgrwt>
<rscale>  0 0.10668348E+03</rscale>
<asrwt>0</asrwt>
<pdfrwt beam="1">  1        4 0.58787712E-01 0.10715937E+03</pdfrwt>
<pdfrwt beam="2">  1       -4 0.48546138E-02 0.10715937E+03</pdfrwt>
<totfact> 0.10872733E+03</totfact>
</mgrwt>
</event>
<event>
 8    1  0.6836165E-004  0.9909967E+02  0.7546771E-02  0.1283149E+00
          1   -1    0    0  501    0  0.00000000000E+00  0.00000000000E+00  0.11687298409E+02  0.11687298409E+02  0.00000000000E+00 0. -1.
         -1   -1    0    0    0  501 -0.00000000000E+00 -0.00000000000E+00 -0.86848834268E+03  0.86848834268E+03  0.00000000000E+00 0.  1.
         23    2    1    2    0    0 -0.20470668209E+02  0.29715476701E+02 -0.53009636398E+03  0.53927998312E+03  0.92296734916E+02 0.  0.
         23    2    1    2    0    0  0.20470668209E+02 -0.29715476701E+02 -0.32670468028E+03  0.34089565796E+03  0.90398250456E+02 0.  0.
          5    1    4    4  502    0  0.26422242306E+02 -0.58947640345E+02 -0.25486928136E+03  0.26297034010E+03  0.47000000000E+01 0. -1.
         -5    1    3    3    0  503 -0.26029944164E+02  0.60420820595E+02 -0.31051956264E+03  0.31744719614E+03  0.47000000000E+01 0.  1.
          5    1    3    3  503    0  0.55592759542E+01 -0.30705343894E+02 -0.21957680134E+03  0.22183278698E+03  0.47000000000E+01 0. -1.
         -5    1    4    4    0  502 -0.59515740964E+01  0.29232163644E+02 -0.71835398922E+02  0.77925317862E+02  0.47000000000E+01 0.  1.
<mgrwt>
<rscale>  0 0.98655266E+02</rscale>
<asrwt>0</asrwt>
<pdfrwt beam="1">  1        1 0.17980459E-02 0.99099672E+02</pdfrwt>
<pdfrwt beam="2">  1       -1 0.13361359E+00 0.99099672E+02</pdfrwt>
<totfact> 0.33634047E+03</totfact>
</mgrwt>
</event>
<event>
 8    1  0.6836165E-004  0.1076884E+03  0.7546771E-02  0.1265597E+00
          1   -1    0    0  501    0  0.00000000000E+00  0.00000000000E+00  0.10453041672E+03  0.10453041672E+03  0.00000000000E+00 0. -1.
         -1   -1    0    0    0  501 -0.00000000000E+00 -0.00000000000E+00 -0.12947843672E+03  0.12947843672E+03  0.00000000000E+00 0.  1.
         23    2    1    2    0    0  0.59511350063E+02  0.34924785150E+01  0.33445464493E+02  0.11276255722E+03  0.89682757664E+02 0.  0.
         23    2    1    2    0    0 -0.59511350063E+02 -0.34924785150E+01 -0.58393484495E+02  0.12124629623E+03  0.87960599842E+02 0.  0.
          5    1    3    3  502    0  0.57477549372E+02  0.39730685668E+02  0.14363598514E+02  0.71488453807E+02  0.47000000000E+01 0. -1.
         -5    1    3    3    0  502  0.20338006910E+01 -0.36238207153E+02  0.19081865979E+02  0.41274103408E+02  0.47000000000E+01 0.  1.
          5    1    4    4  503    0  0.33307704368E+01  0.32906074431E+02 -0.16232628160E+02  0.37141512935E+02  0.47000000000E+01 0. -1.
         -5    1    4    4    0  503 -0.62842120500E+02 -0.36398552946E+02 -0.42160856335E+02  0.84104783290E+02  0.47000000000E+01 0.  1.
<mgrwt>
<rscale>  0 0.10732914E+03</rscale>
<asrwt>0</asrwt>
<pdfrwt beam="1">  1        1 0.16081603E-01 0.10768842E+03</pdfrwt>
<pdfrwt beam="2">  1       -1 0.19919759E-01 0.10768842E+03</pdfrwt>
<totfact> 0.64345253E+03</totfact>
</mgrwt>
</event>
<event>
 8    1  0.6836165E-004  0.1154910E+03  0.7546771E-02  0.1251184E+00
          1   -1    0    0  501    0  0.00000000000E+00  0.00000000000E+00  0.41541177653E+02  0.41541177653E+02  0.00000000000E+00 0. -1.
         -1   -1    0    0    0  501 -0.00000000000E+00 -0.00000000000E+00 -0.39665674367E+03  0.39665674367E+03  0.00000000000E+00 0.  1.
         23    2    1    2    0    0 -0.67323412954E+02  0.12855562636E+02 -0.27566621467E+03  0.29888128782E+03  0.92954047108E+02 0.  0.
         23    2    1    2    0    0  0.67323412954E+02 -0.12855562636E+02 -0.79449351340E+02  0.13931663350E+03  0.91647245017E+02 0.  0.
          5    1    3    3  502    0  0.35208265295E+01  0.38785998031E+02 -0.11001862623E+03  0.11680298789E+03  0.47000000000E+01 0. -1.
         -5    1    4    4    0  503  0.56793325947E+02 -0.49485804493E+02 -0.59068579661E+02  0.95841086292E+02  0.47000000000E+01 0.  1.
          5    1    4    4  503    0  0.10530087007E+02  0.36630241857E+02 -0.20380771679E+02  0.43475547209E+02  0.47000000000E+01 0. -1.
         -5    1    3    3    0  502 -0.70844239484E+02 -0.25930435394E+02 -0.16564758845E+03  0.18207829993E+03  0.47000000000E+01 0.  1.
<mgrwt>
<rscale>  0 0.11522777E+03</rscale>
<asrwt>0</asrwt>
<pdfrwt beam="1">  1        1 0.63909504E-02 0.11549096E+03</pdfrwt>
<pdfrwt beam="2">  1       -1 0.61024115E-01 0.11549096E+03</pdfrwt>
<totfact> 0.31755317E+03</totfact>
</mgrwt>
</event>
<event>
 8    1  0.6836165E-004  0.9894176E+02  0.7546771E-02  0.1284007E+00
          2   -1    0    0  501    0  0.00000000000E+00  0.00000000000E+00  0.12665729056E+02  0.12665729056E+02  0.00000000000E+00 0. -1.
         -2   -1    0    0    0  501 -0.00000000000E+00 -0.00000000000E+00 -0.75567081006E+03  0.75567081006E+03  0.00000000000E+00 0.  1.
         23    2    1    2    0    0  0.91311622680E+01  0.39545398348E+02 -0.40400096895E+03  0.41594020465E+03  0.90234440614E+02 0.  0.
         23    2    1    2    0    0 -0.91311622680E+01 -0.39545398348E+02 -0.33900411205E+03  0.35239633447E+03  0.87247761599E+02 0.  0.
          5    1    3    3  502    0  0.31821808204E+02 -0.12579490332E+01 -0.54454118678E+02  0.63257813384E+02  0.47000000000E+01 0. -1.
         -5    1    4    4    0  503  0.23490209857E+02  0.10168702708E+02 -0.19194592206E+03  0.19370214111E+03  0.47000000000E+01 0.  1.
          5    1    4    4  503    0 -0.32621372125E+02 -0.49714101056E+02 -0.14705818999E+03  0.15869419336E+03  0.47000000000E+01 0. -1.
         -5    1    3    3    0  502 -0.22690645936E+02  0.40803347381E+02 -0.34954685028E+03  0.35268239127E+03  0.47000000000E+01 0.  1.
<mgrwt>
<rscale>  0 0.98255642E+02</rscale>
<asrwt>0</asrwt>
<pdfrwt beam="1">  1        2 0.19485728E-02 0.98941755E+02</pdfrwt>
<pdfrwt beam="2">  1       -2 0.11625710E+00 0.98941755E+02</pdfrwt>
<totfact> 0.31473134E+03</totfact>
</mgrwt>
</event>
<event>
 8    1  0.6836165E-004  0.1194854E+03  0.7546771E-02  0.1243992E+00
         -1   -1    0    0    0  501 -0.00000000000E+00  0.00000000000E+00  0.97761210149E+02  0.97761210149E+02  0.00000000000E+00 0.  1.
          1   -1    0    0  501    0  0.00000000000E+00 -0.00000000000E+00 -0.43051587954E+03  0.43051587954E+03  0.00000000000E+00 0. -1.
         23    2    1    2    0    0 -0.76285190493E+02  0.14692522735E+02  0.48411270977E+02  0.12882215470E+03  0.90643234012E+02 0.  0.
         23    2    1    2    0    0  0.76285190493E+02 -0.14692522735E+02 -0.38116594037E+03  0.39945493499E+03  0.90782544991E+02 0.  0.
          5    1    3    3  502    0 -0.43897146801E+02  0.44399092510E+02 -0.87711796815E+00  0.62618673324E+02  0.47000000000E+01 0. -1.
         -5    1    3    3    0  502 -0.32388043693E+02 -0.29706569775E+02  0.49288388945E+02  0.66203481380E+02  0.47000000000E+01 0.  1.
          5    1    4    4  503    0  0.58535250407E+02  0.81260046390E+01 -0.96283230402E+02  0.11307058834E+03  0.47000000000E+01 0. -1.
         -5    1    4    4    0  503  0.17749940087E+02 -0.22818527374E+02 -0.28488270997E+03  0.28638434664E+03  0.47000000000E+01 0.  1.
<mgrwt>
<rscale>  0 0.11945898E+03</rscale>
<asrwt>0</asrwt>
<pdfrwt beam="1">  1        1 0.66233211E-01 0.11948544E+03</pdfrwt>
<pdfrwt beam="2">  1       -1 0.15040186E-01 0.11948544E+03</pdfrwt>
<totfact> 0.17274401E+03</totfact>
</mgrwt>
</event>
<event>
 8    1  0.6836165E-004  0.9578868E+02  0.7546771E-02  0.1289463E+00
          1   -1    0    0  501    0  0.00000000000E+00  0.00000000000E+00  0.28265731536E+03  0.28265731536E+03  0.00000000000E+00 0. -1.
         -1   -1    0    0    0  501 -0.00000000000E+00 -0.00000000000E+00 -0.66886530866E+02  0.66886530866E+02  0.00000000000E+00 0.  1.
         23    2    1    2    0    0 -0.14619929728E+02  0.26610898626E+02 -0.17583244771E+02  0.97294813912E+02  0.90748157262E+02 0.  0.
         23    2    1    2    0    0  0.14619929728E+02 -0.26610898626E+02  0.23335402926E+03  0.25224903231E+03  0.90849265592E+02 0.  0.
          5    1    3    3  502    0  0.54226073640E+01 -0.23629813757E+02  0.19566304087E+02  0.31507190044E+02  0.47000000000E+01 0. -1.
         -5    1    4    4    0  503  0.23307629514E+02  0.25208804070E+02  0.14722948831E+03  0.15125257560E+03  0.47000000000E+01 0.  1.
          5    1    4    4  503    0 -0.86876997857E+01 -0.51819702697E+02  0.86124540952E+02  0.10099645672E+03  0.47000000000E+01 0. -1.
         -5    1    3    3    0  502 -0.20042537092E+02  0.50240712383E+02 -0.37149548858E+02  0.65787623868E+02  0.47000000000E+01 0.  1.
<mgrwt>
<rscale>  0 0.95764699E+02</rscale>
<asrwt>0</asrwt>
<pdfrwt beam="1">  1        1 0.43485740E-01 0.95788681E+02</pdfrwt>
<pdfrwt beam="2">  1       -1 0.10290236E-01 0.95788681E+02</pdfrwt>
<totfact> 0.51593803E+03</totfact>
</mgrwt>
</event>
<event>
 8    1  0.6836165E-004  0.1205325E+03  0.7546771E-02  0.1242420E+00
          3   -1    0    0  501    0  0.00000000000E+00  0.00000000000E+00  0.59817499390E+02  0.59817499390E+02  0.00000000000E+00 0. -1.
         -3   -1    0    0    0  501 -0.00000000000E+00 -0.00000000000E+00 -0.32753213549E+03  0.32753213549E+03  0.00000000000E+00 0.  1.
         23    2    1    2    0    0  0.61593114372E+02 -0.49978613968E+02 -0.23268795254E+03  0.26183093468E+03  0.90112049714E+02 0.  0.
         23    2    1    2    0    0 -0.61593114372E+02  0.49978613968E+02 -0.35026683557E+02  0.12551870020E+03  0.90755175870E+02 0.  0.
          5    1    4    4  502    0 -0.76183055414E+02  0.10720301571E+02 -0.13699597459E+02  0.78285067340E+02  0.47000000000E+01 0. -1.
         -5    1    4    4    0  502  0.14589941042E+02  0.39258312397E+02 -0.21327086098E+02  0.47233632861E+02  0.47000000000E+01 0.  1.
          5    1    3    3  503    0 -0.41055933286E-01 -0.29577477089E+02 -0.12903831442E+02  0.32610239226E+02  0.47000000000E+01 0.  1.
         -5    1    3    3    0  503  0.61634170305E+02 -0.20401136879E+02 -0.21978412110E+03  0.22922069545E+03  0.47000000000E+01 0.  1.
<mgrwt>
<rscale>  0 0.12041141E+03</rscale>
<asrwt>0</asrwt>
<pdfrwt beam="1">  1        3 0.92026921E-02 0.12053247E+03</pdfrwt>
<pdfrwt beam="2">  1       -3 0.50389560E-01 0.12053247E+03</pdfrwt>
<totfact> 0.75575187E+02</totfact>
</mgrwt>
</event>
<event>
 8    1  0.6836165E-004  0.9907172E+02  0.7546771E-02  0.1285712E+00
         -1   -1    0    0    0  501 -0.00000000000E+00  0.00000000000E+00  0.15623107801E+02  0.15623107801E+02  0.00000000000E+00 0.  1.
          1   -1    0    0  501    0  0.00000000000E+00 -0.00000000000E+00 -0.10581851913E+04  0.10581851913E+04  0.00000000000E+00 0. -1.
         23    2    1    2    0    0  0.34108064253E+02 -0.24986765288E+02 -0.15447624831E+03  0.18021350529E+03  0.82621411939E+02 0.  0.
         23    2    1    2    0    0 -0.34108064253E+02  0.24986765288E+02 -0.88808583520E+03  0.89359479382E+03  0.89596352440E+02 0.  0.
          5    1    4    4  502    0 -0.60435484049E+02  0.35108495394E+02 -0.66663160926E+03  0.67030205628E+03  0.47000000000E+01 0. -1.
         -5    1    4    4    0  502  0.26327419795E+02 -0.10121730106E+02 -0.22145422594E+03  0.22329273754E+03  0.47000000000E+01 0.  1.
          5    1    3    3  503    0  0.88018745825E+01  0.21866234561E+02 -0.10382521037E+03  0.10657096001E+03  0.47000000000E+01 0. -1.
         -5    1    3    3    0  503  0.25306189671E+02 -0.46852999849E+02 -0.50651037939E+02  0.73642545276E+02  0.47000000000E+01 0.  1.
<mgrwt>
<rscale>  0 0.97468178E+02</rscale>
<asrwt>0</asrwt>
<pdfrwt beam="1">  1        1 0.16279774E+00 0.99071716E+02</pdfrwt>
<pdfrwt beam="2">  1       -1 0.24035548E-02 0.99071716E+02</pdfrwt>
<totfact> 0.72335271E+03</totfact>
</mgrwt>
</event>
<event>
 8    1  0.6836165E-004  0.1451743E+03  0.7546771E-02  0.1206695E+00
         -1   -1    0    0    0  501 -0.00000000000E+00  0.00000000000E+00  0.71142279250E+02  0.71142279250E+02  0.00000000000E+00 0.  1.
          1   -1    0    0  501    0  0.00000000000E+00 -0.00000000000E+00 -0.32865997905E+03  0.32865997905E+03  0.00000000000E+00 0. -1.
         23    2    1    2    0    0 -0.10322483521E+03  0.51373701989E+02 -0.65186344430E+02  0.15913780660E+03  0.88209739428E+02 0.  0.
         23    2    1    2    0    0  0.10322483521E+03 -0.51373701989E+02 -0.19233135537E+03  0.24066445170E+03  0.87369354995E+02 0.  0.
          5    1    3    3  502    0 -0.58582001764E+02  0.19410649062E+02 -0.80876163319E+02  0.10184138658E+03  0.47000000000E+01 0. -1.
         -5    1    4    4    0  503  0.73606264858E+02  0.51624036994E+01 -0.13865779934E+03  0.15713881747E+03  0.47000000000E+01 0.  1.
          5    1    4    4  503    0  0.29618570352E+02 -0.56536105688E+02 -0.53673556030E+02  0.83525634227E+02  0.47000000000E+01 0. -1.
         -5    1    3    3    0  502 -0.44642833445E+02  0.31963052927E+02  0.15689818888E+02  0.57296420021E+02  0.47000000000E+01 0.  1.
<mgrwt>
<rscale>  0 0.14504688E+03</rscale>
<asrwt>0</asrwt>
<pdfrwt beam="1">  1        1 0.50563075E-01 0.14517432E+03</pdfrwt>
<pdfrwt beam="2">  1       -1 0.10944966E-01 0.14517432E+03</pdfrwt>
<totfact> 0.39947379E+03</totfact>
</mgrwt>
</event>
<event>
 8    1  0.6836165E-004  0.9770157E+02  0.7546771E-02  0.1290362E+00
          1   -1    0    0  501    0  0.00000000000E+00  0.00000000000E+00  0.98563473931E+03  0.98563473931E+03  0.00000000000E+00 0. -1.
         -1   -1    0    0    0  501 -0.00000000000E+00 -0.00000000000E+00 -0.95761606841E+01  0.95761606841E+01  0.00000000000E+00 0.  1.
         23    2    1    2    0    0  0.22223280871E+02 -0.22630171939E+02  0.65030258442E+03  0.65760097904E+03  0.92409942281E+02 0.  0.
         23    2    1    2    0    0 -0.22223280871E+02  0.22630171939E+02  0.32575599420E+03  0.33760992095E+03  0.82809975685E+02 0.  0.
          5    1    4    4  502    0  0.14934692388E+02  0.38120649596E+02  0.22946768576E+03  0.23313888087E+03  0.47000000000E+01 0. -1.
         -5    1    4    4    0  502 -0.37157973259E+02 -0.15490477657E+02  0.96288308442E+02  0.10447104009E+03  0.47000000000E+01 0.  1.
          5    1    3    3  503    0  0.56026252352E+02 -0.26463153327E+02  0.36686239845E+03  0.37208782409E+03  0.47000000000E+01 0. -1.
         -5    1    3    3    0  503 -0.33802971482E+02  0.38329813880E+01  0.28344018597E+03  0.28551315495E+03  0.47000000000E+01 0.  1.
<mgrwt>
<rscale>  0 0.95362598E+02</rscale>
<asrwt>0</asrwt>
<pdfrwt beam="1">  1        1 0.15163603E+00 0.97701568E+02</pdfrwt>
<pdfrwt beam="2">  1       -1 0.14732563E-02 0.97701568E+02</pdfrwt>
<totfact> 0.16388839E+04</totfact>
</mgrwt>
</event>
<event>
 8    1  0.6836165E-004  0.1015338E+03  0.7546771E-02  0.1277373E+00
          2   -1    0    0  501    0  0.00000000000E+00  0.00000000000E+00  0.71458884018E+03  0.71458884018E+03  0.00000000000E+00 0. -1.
         -2   -1    0    0    0  501 -0.00000000000E+00 -0.00000000000E+00 -0.15902632466E+02  0.15902632466E+02  0.00000000000E+00 0.  1.
         23    2    1    2    0    0  0.10730740868E+02 -0.42936168867E+02  0.23612641296E+03  0.25703071521E+03  0.91380754376E+02 0.  0.
         23    2    1    2    0    0 -0.10730740868E+02  0.42936168867E+02  0.46255979476E+03  0.47346075744E+03  0.90801220841E+02 0.  0.
          5    1    4    4  502    0  0.37440209282E+02  0.35283511836E+02  0.21762950317E+03  0.22367696826E+03  0.47000000000E+01 0. -1.
         -5    1    3    3    0  503  0.21631929014E+02 -0.12441229341E+02  0.80790798244E+01  0.26647440237E+02  0.47000000000E+01 0.  1.
          5    1    3    3  503    0 -0.10901188146E+02 -0.30494939526E+02  0.22804733313E+03  0.23038327498E+03  0.47000000000E+01 0. -1.
         -5    1    4    4    0  502 -0.48170950150E+02  0.76526570310E+01  0.24493029159E+03  0.24978378918E+03  0.47000000000E+01 0.  1.
<mgrwt>
<rscale>  0 0.10140320E+03</rscale>
<asrwt>0</asrwt>
<pdfrwt beam="1">  1        2 0.10993672E+00 0.10153377E+03</pdfrwt>
<pdfrwt beam="2">  1       -2 0.24465594E-02 0.10153377E+03</pdfrwt>
<totfact> 0.21619560E+04</totfact>
</mgrwt>
</event>
<event>
 8    1  0.6836165E-004  0.9735666E+02  0.7546771E-02  0.1286313E+00
          4   -1    0    0  501    0  0.00000000000E+00  0.00000000000E+00  0.59703062011E+02  0.59703062011E+02  0.00000000000E+00 0. -1.
         -4   -1    0    0    0  501 -0.00000000000E+00 -0.00000000000E+00 -0.18663618120E+03  0.18663618120E+03  0.00000000000E+00 0.  1.
         23    2    1    2    0    0 -0.16971100639E+02  0.17842712039E+02 -0.11215243670E+03  0.14851426760E+03  0.94190965570E+02 0.  0.
         23    2    1    2    0    0  0.16971100639E+02 -0.17842712039E+02 -0.14780682492E+02  0.97824975607E+02  0.93514045190E+02 0.  0.
          5    1    4    4  502    0 -0.98218594716E+01 -0.31157953378E+02 -0.44492434235E+02  0.55398137932E+02  0.47000000000E+01 0. -1.
         -5    1    4    4    0  502  0.26792960110E+02  0.13315241339E+02  0.29711751743E+02  0.42426837674E+02  0.47000000000E+01 0.  1.
          5    1    3    3  503    0 -0.38861191888E+02  0.37022331050E+02 -0.30972174991E+02  0.62146688206E+02  0.47000000000E+01 0. -1.
         -5    1    3    3    0  503  0.21890091249E+02 -0.19179619011E+02 -0.81180261705E+02  0.86367579396E+02  0.47000000000E+01 0.  1.
<mgrwt>
<rscale>  0 0.97192553E+02</rscale>
<asrwt>0</asrwt>
<pdfrwt beam="1">  1        4 0.91850864E-02 0.97356657E+02</pdfrwt>
<pdfrwt beam="2">  1       -4 0.28713259E-01 0.97356657E+02</pdfrwt>
<totfact> 0.15406221E+03</totfact>
</mgrwt>
</event>
<event>
 8    1  0.6836165E-004  0.9549843E+02  0.7546771E-02  0.1290699E+00
          3   -1    0    0  501    0  0.00000000000E+00  0.00000000000E+00  0.24376982478E+02  0.24376982478E+02  0.00000000000E+00 0. -1.
         -3   -1    0    0    0  501 -0.00000000000E+00 -0.00000000000E+00 -0.60540585820E+03  0.60540585820E+03  0.00000000000E+00 0.  1.
         23    2    1    2    0    0 -0.19050579683E+02  0.15535271498E+02 -0.48807330784E+03  0.49732836543E+03  0.92280442070E+02 0.  0.
         23    2    1    2    0    0  0.19050579683E+02 -0.15535271498E+02 -0.92955567875E+02  0.13245447524E+03  0.91099841743E+02 0.  0.
          5    1    4    4  502    0 -0.12085881176E+02 -0.45290299757E+02 -0.29379701263E+02  0.55520596378E+02  0.47000000000E+01 0. -1.
         -5    1    3    3    0  503 -0.56211690106E+02  0.80861757004E+01 -0.31194338345E+03  0.31710551055E+03  0.47000000000E+01 0.  1.
          5    1    3    3  503    0  0.37161110422E+02  0.74490957981E+01 -0.17612992439E+03  0.18022285488E+03  0.47000000000E+01 0. -1.
         -5    1    4    4    0  502  0.31136460859E+02  0.29755028258E+02 -0.63575866612E+02  0.76933878863E+02  0.47000000000E+01 0.  1.
<mgrwt>
<rscale>  0 0.95212058E+02</rscale>
<asrwt>0</asrwt>
<pdfrwt beam="1">  1        3 0.37503050E-02 0.95498425E+02</pdfrwt>
<pdfrwt beam="2">  1       -3 0.93139363E-01 0.95498425E+02</pdfrwt>
<totfact> 0.83272529E+02</totfact>
</mgrwt>
</event>
<event>
 8    1  0.6836165E-004  0.1133612E+03  0.7546771E-02  0.1258879E+00
          1   -1    0    0  501    0  0.00000000000E+00  0.00000000000E+00  0.22871012416E+03  0.22871012416E+03  0.00000000000E+00 0. -1.
         -1   -1    0    0    0  501 -0.00000000000E+00 -0.00000000000E+00 -0.52541575712E+02  0.52541575712E+02  0.00000000000E+00 0.  1.
         23    2    1    2    0    0 -0.30204575365E+01 -0.53099426852E+02  0.73007247917E+02  0.13483628006E+03  0.10011039844E+03 0.  0.
         23    2    1    2    0    0  0.30204575365E+01  0.53099426852E+02  0.10316130053E+03  0.14641541982E+03  0.89255526084E+02 0.  0.
          5    1    3    3  502    0 -0.24221043852E+02  0.22708948002E+02  0.30105302965E+02  0.45064116005E+02  0.47000000000E+01 0. -1.
         -5    1    4    4    0  503 -0.18505316576E+02 -0.16949485639E+02  0.91429905069E+01  0.27118556017E+02  0.47000000000E+01 0.  1.
          5    1    4    4  503    0  0.21525774112E+02  0.70048912491E+02  0.94018310025E+02  0.11929686380E+03  0.47000000000E+01 0. -1.
         -5    1    3    3    0  502  0.21200586316E+02 -0.75808374854E+02  0.42901944952E+02  0.89772164053E+02  0.47000000000E+01 0.  1.
<mgrwt>
<rscale>  0 0.11091807E+03</rscale>
<asrwt>0</asrwt>
<pdfrwt beam="1">  1        1 0.35186172E-01 0.11336121E+03</pdfrwt>
<pdfrwt beam="2">  1       -1 0.80833195E-02 0.11336121E+03</pdfrwt>
<totfact> 0.97480225E+03</totfact>
</mgrwt>
</event>
<event>
 8    1  0.6836165E-004  0.1506517E+03  0.7546771E-02  0.1199930E+00
         -2   -1    0    0    0  501 -0.00000000000E+00  0.00000000000E+00  0.13693786938E+03  0.13693786938E+03  0.00000000000E+00 0.  1.
          2   -1    0    0  501    0  0.00000000000E+00 -0.00000000000E+00 -0.16614134923E+03  0.16614134923E+03  0.00000000000E+00 0. -1.
         23    2    1    2    0    0  0.93922725845E+02 -0.73055331147E+02 -0.28061509828E+02  0.15242320554E+03  0.91032002151E+02 0.  0.
         23    2    1    2    0    0 -0.93922725845E+02  0.73055331147E+02 -0.11419700298E+01  0.15065601306E+03  0.92397891413E+02 0.  0.
          5    1    3    3  502    0  0.98205204752E+02 -0.50348040116E+02  0.64244180543E+01  0.11064605972E+03  0.47000000000E+01 0. -1.
         -5    1    3    3    0  502 -0.42824789064E+01 -0.22707291031E+02 -0.34485927882E+02  0.41777145827E+02  0.47000000000E+01 0.  1.
          5    1    4    4  503    0 -0.41258686827E+02  0.68736046984E+02 -0.35129049557E+02  0.87653086177E+02  0.47000000000E+01 0. -1.
         -5    1    4    4    0  503 -0.52664039019E+02  0.43192841630E+01  0.33987079528E+02  0.63002926887E+02  0.47000000000E+01 0.  1.
<mgrwt>
<rscale>  0 0.15044279E+03</rscale>
<asrwt>0</asrwt>
<pdfrwt beam="1">  1        2 0.25560208E-01 0.15065168E+03</pdfrwt>
<pdfrwt beam="2">  1       -2 0.21067365E-01 0.15065168E+03</pdfrwt>
<totfact> 0.38914073E+03</totfact>
</mgrwt>
</event>
<event>
 8    1  0.6836165E-004  0.9727912E+02  0.7546771E-02  0.1288913E+00
         -1   -1    0    0    0  501 -0.00000000000E+00  0.00000000000E+00  0.61158906912E+02  0.61158906912E+02  0.00000000000E+00 0.  1.
          1   -1    0    0  501    0  0.00000000000E+00 -0.00000000000E+00 -0.15459844508E+03  0.15459844508E+03  0.00000000000E+00 0. -1.
         23    2    1    2    0    0 -0.99682445410E+01 -0.18247445198E+02 -0.21534028043E+02  0.94787808613E+02  0.89937084355E+02 0.  0.
         23    2    1    2    0    0  0.99682445410E+01  0.18247445198E+02 -0.71905510126E+02  0.12096954338E+03  0.95031010116E+02 0.  0.
          5    1    4    4  502    0 -0.84823756381E+01  0.42690107552E+02 -0.77950373759E+02  0.89402162996E+02  0.47000000000E+01 0. -1.
         -5    1    3    3    0  503 -0.91376052950E+01 -0.50012862961E+02  0.73567371611E+01  0.51584822126E+02  0.47000000000E+01 0.  1.
          5    1    3    3  503    0 -0.83063924602E+00  0.31765417764E+02 -0.28890765204E+02  0.43202986486E+02  0.47000000000E+01 0. -1.
         -5    1    4    4    0  502  0.18450620179E+02 -0.24442662355E+02  0.60448636327E+01  0.31567380384E+02  0.47000000000E+01 0.  1.
<mgrwt>
<rscale>  0 0.96012140E+02</rscale>
<asrwt>0</asrwt>
<pdfrwt beam="1">  1        1 0.23784376E-01 0.97279124E+02</pdfrwt>
<pdfrwt beam="2">  1       -1 0.94090628E-02 0.97279124E+02</pdfrwt>
<totfact> 0.12419883E+04</totfact>
</mgrwt>
</event>
<event>
 8    1  0.6836165E-004  0.9390595E+02  0.7546771E-02  0.1295680E+00
         -1   -1    0    0    0  501 -0.00000000000E+00  0.00000000000E+00  0.76467173161E+02  0.76467173161E+02  0.00000000000E+00 0.  1.
          1   -1    0    0  501    0  0.00000000000E+00 -0.00000000000E+00 -0.11473592735E+03  0.11473592735E+03  0.00000000000E+00 0. -1.
         23    2    1    2    0    0 -0.15089532796E+01 -0.20302845500E+02 -0.17931308836E+01  0.90461858457E+02  0.88122925745E+02 0.  0.
         23    2    1    2    0    0  0.15089532796E+01  0.20302845500E+02 -0.36475623308E+02  0.10074124206E+03  0.91672483766E+02 0.  0.
          5    1    4    4  502    0  0.37317894083E+02  0.36600600658E+02 -0.30413186883E+02  0.60657078100E+02  0.47000000000E+01 0. -1.
         -5    1    4    4    0  502 -0.35808940803E+02 -0.16297755158E+02 -0.60624364253E+01  0.40084163956E+02  0.47000000000E+01 0.  1.
          5    1    3    3  503    0 -0.33803190087E+02  0.95658104332E+01  0.20476440588E+02  0.40933299506E+02  0.47000000000E+01 0. -1.
         -5    1    3    3    0  503  0.32294236808E+02 -0.29868655933E+02 -0.22269571472E+02  0.49528558951E+02  0.47000000000E+01 0.  1.
<mgrwt>
<rscale>  0 0.93028252E+02</rscale>
<asrwt>0</asrwt>
<pdfrwt beam="1">  1        1 0.17651681E-01 0.93905946E+02</pdfrwt>
<pdfrwt beam="2">  1       -1 0.11764181E-01 0.93905946E+02</pdfrwt>
<totfact> 0.12828148E+04</totfact>
</mgrwt>
</event>
<event>
 8    1  0.6836165E-004  0.1607486E+03  0.7546771E-02  0.1187917E+00
         -3   -1    0    0    0  501 -0.00000000000E+00  0.00000000000E+00  0.45030825453E+02  0.45030825453E+02  0.00000000000E+00 0.  1.
          3   -1    0    0  501    0  0.00000000000E+00 -0.00000000000E+00 -0.73342149510E+03  0.73342149510E+03  0.00000000000E+00 0. -1.
         23    2    1    2    0    0  0.12786226154E+03  0.30275877712E+02 -0.52639621464E+03  0.55039357042E+03  0.92599788712E+02 0.  0.
         23    2    1    2    0    0 -0.12786226154E+03 -0.30275877712E+02 -0.16199445501E+03  0.22805875014E+03  0.92212815622E+02 0.  0.
          5    1    4    4  502    0 -0.32778578361E+02 -0.47576897690E+02 -0.32654519208E+02  0.66531225886E+02  0.47000000000E+01 0. -1.
         -5    1    3    3    0  503  0.11572566763E+03  0.52123183919E+02 -0.48860583535E+03  0.50484354882E+03  0.47000000000E+01 0.  1.
          5    1    3    3  503    0  0.12136593905E+02 -0.21847306207E+02 -0.37790379295E+02  0.45550021596E+02  0.47000000000E+01 0. -1.
         -5    1    4    4    0  502 -0.95083683178E+02  0.17301019977E+02 -0.12933993580E+03  0.16152752425E+03  0.47000000000E+01 0.  1.
<mgrwt>
<rscale>  0 0.16069290E+03</rscale>
<asrwt>0</asrwt>
<pdfrwt beam="1">  1        3 0.11283407E+00 0.16074858E+03</pdfrwt>
<pdfrwt beam="2">  1       -3 0.69278197E-02 0.16074858E+03</pdfrwt>
<totfact> 0.22055269E+02</totfact>
</mgrwt>
</event>
<event>
 8    1  0.6836165E-004  0.1100154E+03  0.7546771E-02  0.1260567E+00
          3   -1    0    0  501    0  0.00000000000E+00  0.00000000000E+00  0.63036159540E+02  0.63036159540E+02  0.00000000000E+00 0. -1.
         -3   -1    0    0    0  501 -0.00000000000E+00 -0.00000000000E+00 -0.23287349837E+03  0.23287349837E+03  0.00000000000E+00 0.  1.
         23    2    1    2    0    0  0.40963794721E+02 -0.46787652272E+02 -0.22883735109E+02  0.11237019635E+03  0.90753946541E+02 0.  0.
         23    2    1    2    0    0 -0.40963794721E+02  0.46787652272E+02 -0.14695360373E+03  0.18353946156E+03  0.90687680635E+02 0.  0.
          5    1    4    4  502    0  0.10400166836E+02 -0.21261204865E+02 -0.39541360435E+02  0.46322904567E+02  0.47000000000E+01 0. -1.
         -5    1    4    4    0  502 -0.51363961557E+02  0.68048857137E+02 -0.10741224329E+03  0.13721655699E+03  0.47000000000E+01 0.  1.
          5    1    3    3  503    0  0.14091031370E+01 -0.65648591853E+02 -0.11228293256E+02  0.66782391043E+02  0.47000000000E+01 0. -1.
         -5    1    3    3    0  503  0.39554691584E+02  0.18860939581E+02 -0.11655441852E+02  0.45587805310E+02  0.47000000000E+01 0.  1.
<mgrwt>
<rscale>  0 0.11000177E+03</rscale>
<asrwt>0</asrwt>
<pdfrwt beam="1">  1        3 0.96978707E-02 0.11001543E+03</pdfrwt>
<pdfrwt beam="2">  1       -3 0.35826692E-01 0.11001543E+03</pdfrwt>
<totfact> 0.13229550E+03</totfact>
</mgrwt>
</event>
<event>
 8    1  0.6836165E-004  0.1009752E+03  0.7546771E-02  0.1279694E+00
          1   -1    0    0  501    0  0.00000000000E+00  0.00000000000E+00  0.55136273868E+02  0.55136273868E+02  0.00000000000E+00 0. -1.
         -1   -1    0    0    0  501 -0.00000000000E+00 -0.00000000000E+00 -0.18611063530E+03  0.18611063530E+03  0.00000000000E+00 0.  1.
         23    2    1    2    0    0  0.23610046653E+02 -0.28539048599E+02 -0.88267086674E+02  0.13411589198E+03  0.93936586549E+02 0.  0.
         23    2    1    2    0    0 -0.23610046653E+02  0.28539048599E+02 -0.42707274762E+02  0.10713101720E+03  0.91001274333E+02 0.  0.
          5    1    4    4  502    0  0.13621258423E+02  0.15168293510E+02 -0.60118407933E+02  0.63654762441E+02  0.47000000000E+01 0. -1.
         -5    1    4    4    0  502 -0.37231305076E+02  0.13370755089E+02  0.17411133171E+02  0.43476254756E+02  0.47000000000E+01 0.  1.
          5    1    3    3  503    0 -0.22738161323E+02 -0.35683196444E+02 -0.73121141546E+02  0.84611499394E+02  0.47000000000E+01 0. -1.
         -5    1    3    3    0  503  0.46348207976E+02  0.71441478446E+01 -0.15145945128E+02  0.49504392581E+02  0.47000000000E+01 0.  1.
<mgrwt>
<rscale>  0 0.10028701E+03</rscale>
<asrwt>0</asrwt>
<pdfrwt beam="1">  1        1 0.84825036E-02 0.10097521E+03</pdfrwt>
<pdfrwt beam="2">  1       -1 0.28632406E-01 0.10097521E+03</pdfrwt>
<totfact> 0.81728731E+03</totfact>
</mgrwt>
</event>
<event>
 8    1  0.6836165E-004  0.1133540E+03  0.7546771E-02  0.1254675E+00
          1   -1    0    0  501    0  0.00000000000E+00  0.00000000000E+00  0.12366921474E+02  0.12366921474E+02  0.00000000000E+00 0. -1.
         -1   -1    0    0    0  501 -0.00000000000E+00 -0.00000000000E+00 -0.10728454688E+04  0.10728454688E+04  0.00000000000E+00 0.  1.
         23    2    1    2    0    0  0.66620872130E+02  0.61518872240E+00 -0.42738827670E+03  0.44205423378E+03  0.91172844003E+02 0.  0.
         23    2    1    2    0    0 -0.66620872130E+02 -0.61518872240E+00 -0.63309027066E+03  0.64315815652E+03  0.91708257213E+02 0.  0.
          5    1    4    4  502    0 -0.63741485676E+02 -0.36070490787E+02 -0.49822620974E+03  0.50360252519E+03  0.47000000000E+01 0. -1.
         -5    1    4    4    0  502 -0.28793864546E+01  0.35455302065E+02 -0.13486406091E+03  0.13955563133E+03  0.47000000000E+01 0.  1.
          5    1    3    3  503    0 -0.12285229278E+02 -0.21267469175E+02 -0.50593668044E+02  0.56436170579E+02  0.47000000000E+01 0. -1.
         -5    1    3    3    0  503  0.78906101408E+02  0.21882657897E+02 -0.37679460866E+03  0.38561806320E+03  0.47000000000E+01 0.  1.
<mgrwt>
<rscale>  0 0.11324564E+03</rscale>
<asrwt>0</asrwt>
<pdfrwt beam="1">  1        1 0.19026029E-02 0.11335397E+03</pdfrwt>
<pdfrwt beam="2">  1       -1 0.16505319E+00 0.11335397E+03</pdfrwt>
<totfact> 0.18246955E+03</totfact>
</mgrwt>
</event>
<event>
 8    1  0.6836165E-004  0.1093092E+03  0.7546771E-02  0.1262295E+00
          1   -1    0    0  501    0  0.00000000000E+00  0.00000000000E+00  0.66594767360E+02  0.66594767360E+02  0.00000000000E+00 0. -1.
         -1   -1    0    0    0  501 -0.00000000000E+00 -0.00000000000E+00 -0.23706687791E+03  0.23706687791E+03  0.00000000000E+00 0.  1.
         23    2    1    2    0    0  0.48072159319E+02  0.38039909066E+02 -0.16082215283E+03  0.19392735890E+03  0.89364917649E+02 0.  0.
         23    2    1    2    0    0 -0.48072159319E+02 -0.38039909066E+02 -0.96499577197E+01  0.10973428637E+03  0.90501517874E+02 0.  0.
          5    1    4    4  502    0 -0.29154729077E+02 -0.21916353534E+02  0.39800249728E+02  0.54189248548E+02  0.47000000000E+01 0. -1.
         -5    1    4    4    0  502 -0.18917430242E+02 -0.16123555532E+02 -0.49450207447E+02  0.55545037821E+02  0.47000000000E+01 0.  1.
          5    1    3    3  503    0 -0.21990649648E+02  0.26968682953E+02 -0.72457896129E+02  0.80517918773E+02  0.47000000000E+01 0. -1.
         -5    1    3    3    0  503  0.70062808966E+02  0.11071226113E+02 -0.88364256701E+02  0.11340944013E+03  0.47000000000E+01 0.  1.
<mgrwt>
<rscale>  0 0.10907361E+03</rscale>
<asrwt>0</asrwt>
<pdfrwt beam="1">  1        1 0.10245349E-01 0.10930916E+03</pdfrwt>
<pdfrwt beam="2">  1       -1 0.36471827E-01 0.10930916E+03</pdfrwt>
<totfact> 0.42620093E+03</totfact>
</mgrwt>
</event>
<event>
 8    1  0.6836165E-004  0.1058666E+03  0.7546771E-02  0.1269035E+00
          1   -1    0    0  501    0  0.00000000000E+00  0.00000000000E+00  0.23172426865E+03  0.23172426865E+03  0.00000000000E+00 0. -1.
         -1   -1    0    0    0  501 -0.00000000000E+00 -0.00000000000E+00 -0.93483154556E+02  0.93483154556E+02  0.00000000000E+00 0.  1.
         23    2    1    2    0    0 -0.21613730392E+02  0.41670359652E+02 -0.44341604724E+02  0.11477765213E+03  0.94890248729E+02 0.  0.
         23    2    1    2    0    0  0.21613730392E+02 -0.41670359652E+02  0.18258271882E+03  0.21042977107E+03  0.93491535066E+02 0.  0.
          5    1    4    4  502    0  0.20740923179E+02 -0.21465767711E+02  0.18681283824E+03  0.18924082966E+03  0.47000000000E+01 0. -1.
         -5    1    4    4    0  502  0.87280721329E+00 -0.20204591942E+02 -0.42301194260E+01  0.21188941416E+02  0.47000000000E+01 0.  1.
          5    1    3    3  503    0 -0.24288100288E+02 -0.25485314284E+02 -0.28572238767E+02  0.45583723936E+02  0.47000000000E+01 0. -1.
         -5    1    3    3    0  503  0.26743698957E+01  0.67155673936E+02 -0.15769365958E+02  0.69193928194E+02  0.47000000000E+01 0.  1.
<mgrwt>
<rscale>  0 0.10555221E+03</rscale>
<asrwt>0</asrwt>
<pdfrwt beam="1">  1        1 0.35649887E-01 0.10586657E+03</pdfrwt>
<pdfrwt beam="2">  1       -1 0.14382024E-01 0.10586657E+03</pdfrwt>
<totfact> 0.39645377E+03</totfact>
</mgrwt>
</event>
<event>
 8    1  0.6836165E-004  0.1355184E+03  0.7546771E-02  0.1220785E+00
          2   -1    0    0  501    0  0.00000000000E+00  0.00000000000E+00  0.81228527019E+03  0.81228527019E+03  0.00000000000E+00 0. -1.
         -2   -1    0    0    0  501 -0.00000000000E+00 -0.00000000000E+00 -0.22334814038E+02  0.22334814038E+02  0.00000000000E+00 0.  1.
         23    2    1    2    0    0  0.25251298105E+02  0.93378454142E+02  0.34972352589E+03  0.37506235640E+03  0.94910815392E+02 0.  0.
         23    2    1    2    0    0 -0.25251298105E+02 -0.93378454142E+02  0.44022693027E+03  0.45955772782E+03  0.89645921924E+02 0.  0.
          5    1    3    3  502    0  0.49125723775E+02  0.41418983941E+02  0.26513943715E+03  0.27285505328E+03  0.47000000000E+01 0. -1.
         -5    1    3    3    0  502 -0.23874425670E+02  0.51959470202E+02  0.84584088734E+02  0.10220730312E+03  0.47000000000E+01 0.  1.
          5    1    4    4  503    0  0.30505879864E+02 -0.49449955727E+02  0.15516297171E+03  0.16575145435E+03  0.47000000000E+01 0. -1.
         -5    1    4    4    0  503 -0.55757177969E+02 -0.43928498416E+02  0.28506395855E+03  0.29380627348E+03  0.47000000000E+01 0.  1.
<mgrwt>
<rscale>  0 0.13460065E+03</rscale>
<asrwt>0</asrwt>
<pdfrwt beam="1">  1        2 0.12496694E+00 0.13551836E+03</pdfrwt>
<pdfrwt beam="2">  1       -2 0.34361259E-02 0.13551836E+03</pdfrwt>
<totfact> 0.11514399E+04</totfact>
</mgrwt>
</event>
<event>
 8    1  0.6836165E-004  0.1172102E+03  0.7546771E-02  0.1251295E+00
         -1   -1    0    0    0  501 -0.00000000000E+00  0.00000000000E+00  0.15637894903E+03  0.15637894903E+03  0.00000000000E+00 0.  1.
          1   -1    0    0  501    0  0.00000000000E+00 -0.00000000000E+00 -0.24734567880E+03  0.24734567880E+03  0.00000000000E+00 0. -1.
         23    2    1    2    0    0 -0.45278635027E+02  0.36354940909E+02 -0.20997348217E+03  0.23668921077E+03  0.92526119355E+02 0.  0.
         23    2    1    2    0    0  0.45278635027E+02 -0.36354940909E+02  0.11900675241E+03  0.16703541706E+03  0.10181545519E+03 0.  0.
          5    1    4    4  502    0  0.16743959425E+02  0.17237515739E+02 -0.83476954914E+01  0.25870178702E+02  0.47000000000E+01 0. -1.
         -5    1    4    4    0  502  0.28534675602E+02 -0.53592456648E+02  0.12735444790E+03  0.14116523836E+03  0.47000000000E+01 0.  1.
          5    1    3    3  503    0 -0.80453518198E+01  0.23774860197E+02 -0.19117141449E+03  0.19286931166E+03  0.47000000000E+01 0. -1.
         -5    1    3    3    0  503 -0.37233283207E+02  0.12580080712E+02 -0.18802067685E+02  0.43819899114E+02  0.47000000000E+01 0.  1.
<mgrwt>
<rscale>  0 0.11516415E+03</rscale>
<asrwt>0</asrwt>
<pdfrwt beam="1">  1        1 0.38053181E-01 0.11721017E+03</pdfrwt>
<pdfrwt beam="2">  1       -1 0.24058300E-01 0.11721017E+03</pdfrwt>
<totfact> 0.16238346E+03</totfact>
</mgrwt>
</event>
<event>
 8    1  0.6836165E-004  0.9959269E+02  0.7546771E-02  0.1282148E+00
          1   -1    0    0  501    0  0.00000000000E+00  0.00000000000E+00  0.50048242369E+03  0.50048242369E+03  0.00000000000E+00 0. -1.
         -1   -1    0    0    0  501 -0.00000000000E+00 -0.00000000000E+00 -0.20592015243E+02  0.20592015243E+02  0.00000000000E+00 0.  1.
         23    2    1    2    0    0  0.33162220210E+02 -0.16284599209E+01  0.30343697723E+03  0.31936296552E+03  0.93895260096E+02 0.  0.
         23    2    1    2    0    0 -0.33162220210E+02  0.16284599209E+01  0.17645343122E+03  0.20171147341E+03  0.91920184860E+02 0.  0.
          5    1    4    4  502    0 -0.63967791230E+02  0.62569698344E+01  0.13548165763E+03  0.15002798919E+03  0.47000000000E+01 0. -1.
         -5    1    3    3    0  503  0.49126015521E+02  0.34229058415E+02  0.18182638365E+03  0.19148868800E+03  0.47000000000E+01 0.  1.
          5    1    3    3  503    0 -0.15963795311E+02 -0.35857518336E+02  0.12161059358E+03  0.12787427753E+03  0.47000000000E+01 0. -1.
         -5    1    4    4    0  502  0.30805571020E+02 -0.46285099135E+01  0.40971773586E+02  0.51683484216E+02  0.47000000000E+01 0.  1.
<mgrwt>
<rscale>  0 0.99124434E+02</rscale>
<asrwt>0</asrwt>
<pdfrwt beam="1">  1        1 0.76997287E-01 0.99592694E+02</pdfrwt>
<pdfrwt beam="2">  1       -1 0.31680027E-02 0.99592694E+02</pdfrwt>
<totfact> 0.14459442E+04</totfact>
</mgrwt>
</event>
<event>
 8    1  0.6836165E-004  0.9674194E+02  0.7546771E-02  0.1288040E+00
         -2   -1    0    0    0  501 -0.00000000000E+00  0.00000000000E+00  0.15793294999E+03  0.15793294999E+03  0.00000000000E+00 0.  1.
          2   -1    0    0  501    0  0.00000000000E+00 -0.00000000000E+00 -0.60144390557E+02  0.60144390557E+02  0.00000000000E+00 0. -1.
         23    2    1    2    0    0 -0.25656079718E+02 -0.45223124865E+01  0.30887719322E+02  0.10155320946E+03  0.93168221025E+02 0.  0.
         23    2    1    2    0    0  0.25656079718E+02  0.45223124865E+01  0.66900840111E+02  0.11652413109E+03  0.91779436599E+02 0.  0.
          5    1    3    3  502    0 -0.35375342343E+02  0.31130321510E+02 -0.76323263433E+01  0.47967219729E+02  0.47000000000E+01 0. -1.
         -5    1    4    4    0  503  0.55534025266E+02 -0.16808967996E+02  0.37361467377E+02  0.69170359344E+02  0.47000000000E+01 0.  1.
          5    1    4    4  503    0 -0.29877945548E+02  0.21331280482E+02  0.29539372734E+02  0.47353771747E+02  0.47000000000E+01 0. -1.
         -5    1    3    3    0  502  0.97192626249E+01 -0.35652633996E+02  0.38520045666E+02  0.53585989726E+02  0.47000000000E+01 0.  1.
<mgrwt>
<rscale>  0 0.96406008E+02</rscale>
<asrwt>0</asrwt>
<pdfrwt beam="1">  1        2 0.92529832E-02 0.96741941E+02</pdfrwt>
<pdfrwt beam="2">  1       -2 0.24297377E-01 0.96741941E+02</pdfrwt>
<totfact> 0.96133422E+03</totfact>
</mgrwt>
</event>
<event>
 8    1  0.6836165E-004  0.1149980E+03  0.7546771E-02  0.1251992E+00
         -1   -1    0    0    0  501 -0.00000000000E+00  0.00000000000E+00  0.55431937690E+02  0.55431937690E+02  0.00000000000E+00 0.  1.
          1   -1    0    0  501    0  0.00000000000E+00 -0.00000000000E+00 -0.25359227700E+03  0.25359227700E+03  0.00000000000E+00 0. -1.
         23    2    1    2    0    0 -0.63133332439E+02 -0.31168618311E+02 -0.13864285386E+03  0.17953726496E+03  0.89746800214E+02 0.  0.
         23    2    1    2    0    0  0.63133332439E+02  0.31168618311E+02 -0.59517485445E+02  0.12948694973E+03  0.90924356718E+02 0.  0.
          5    1    3    3  502    0 -0.54506409474E+02 -0.59467458243E+02 -0.11854058210E+03  0.14346179585E+03  0.47000000000E+01 0. -1.
         -5    1    3    3    0  502 -0.86269229655E+01  0.28298839931E+02 -0.20102271760E+02  0.36075469106E+02  0.47000000000E+01 0.  1.
          5    1    4    4  503    0  0.44361614454E+02 -0.18053678823E+02 -0.59591771382E+02  0.76597371837E+02  0.47000000000E+01 0. -1.
         -5    1    4    4    0  503  0.18771717985E+02  0.49222297135E+02  0.74285936246E-01  0.52889577893E+02  0.47000000000E+01 0.  1.
<mgrwt>
<rscale>  0 0.11476510E+03</rscale>
<asrwt>0</asrwt>
<pdfrwt beam="1">  1        1 0.39014196E-01 0.11499800E+03</pdfrwt>
<pdfrwt beam="2">  1       -1 0.85279904E-02 0.11499800E+03</pdfrwt>
<totfact> 0.79289876E+03</totfact>
</mgrwt>
</event>
<event>
 8    1  0.6836165E-004  0.1184230E+03  0.7546771E-02  0.1245910E+00
          3   -1    0    0  501    0  0.00000000000E+00  0.00000000000E+00  0.35556495324E+03  0.35556495324E+03  0.00000000000E+00 0. -1.
         -3   -1    0    0    0  501 -0.00000000000E+00 -0.00000000000E+00 -0.39677176868E+02  0.39677176868E+02  0.00000000000E+00 0.  1.
         23    2    1    2    0    0  0.69481201424E+02  0.29678553603E+02  0.17769568778E+03  0.21354100269E+03  0.91189629224E+02 0.  0.
         23    2    1    2    0    0 -0.69481201424E+02 -0.29678553603E+02  0.13819208859E+03  0.18170112742E+03  0.90607905066E+02 0.  0.
          5    1    3    3  502    0  0.11414027124E+02  0.51961370568E+02  0.10463598393E+03  0.11747784123E+03  0.47000000000E+01 0. -1.
         -5    1    4    4    0  503 -0.29625891640E+02 -0.60376299920E+02  0.81089874143E+02  0.10545448656E+03  0.47000000000E+01 0.  1.
          5    1    4    4  503    0 -0.39855309784E+02  0.30697746317E+02  0.57102214446E+02  0.76246640854E+02  0.47000000000E+01 0. -1.
         -5    1    3    3    0  502  0.58067174300E+02 -0.22282816964E+02  0.73059703847E+02  0.96063161458E+02  0.47000000000E+01 0.  1.
<mgrwt>
<rscale>  0 0.11831098E+03</rscale>
<asrwt>0</asrwt>
<pdfrwt beam="1">  1        3 0.54702298E-01 0.11842298E+03</pdfrwt>
<pdfrwt beam="2">  1       -3 0.61041813E-02 0.11842298E+03</pdfrwt>
<totfact> 0.12411299E+03</totfact>
</mgrwt>
</event>
<event>
 8    1  0.6836165E-004  0.1108835E+03  0.7546771E-02  0.1260336E+00
         -2   -1    0    0    0  501 -0.00000000000E+00  0.00000000000E+00  0.31196719184E+02  0.31196719184E+02  0.00000000000E+00 0.  1.
          2   -1    0    0  501    0  0.00000000000E+00 -0.00000000000E+00 -0.58726084689E+03  0.58726084689E+03  0.00000000000E+00 0. -1.
         23    2    1    2    0    0  0.53495511143E+02 -0.21279125590E+02 -0.98397731166E+02  0.14824727358E+03  0.94765867942E+02 0.  0.
         23    2    1    2    0    0 -0.53495511143E+02  0.21279125590E+02 -0.45766639654E+03  0.47021029249E+03  0.91239343199E+02 0.  0.
          5    1    4    4  502    0 -0.34561269385E+02  0.55006869556E+02 -0.34230339329E+03  0.34844503167E+03  0.47000000000E+01 0. -1.
         -5    1    4    4    0  502 -0.18934241758E+02 -0.33727743966E+02 -0.11536300325E+03  0.12176526082E+03  0.47000000000E+01 0.  1.
          5    1    3    3  503    0 -0.26981074611E+02 -0.10040239755E+01 -0.29667668485E+02  0.40388698972E+02  0.47000000000E+01 0. -1.
         -5    1    3    3    0  503  0.80476585754E+02 -0.20275101615E+02 -0.68730062682E+02  0.10785857461E+03  0.47000000000E+01 0.  1.
<mgrwt>
<rscale>  0 0.11012614E+03</rscale>
<asrwt>0</asrwt>
<pdfrwt beam="1">  1        2 0.90347806E-01 0.11088346E+03</pdfrwt>
<pdfrwt beam="2">  1       -2 0.47994961E-02 0.11088346E+03</pdfrwt>
<totfact> 0.10147092E+04</totfact>
</mgrwt>
</event>
<event>
 8    1  0.6836165E-004  0.1002826E+03  0.7546771E-02  0.1284723E+00
          1   -1    0    0  501    0  0.00000000000E+00  0.00000000000E+00  0.37436543932E+02  0.37436543932E+02  0.00000000000E+00 0. -1.
         -1   -1    0    0    0  501 -0.00000000000E+00 -0.00000000000E+00 -0.25464428665E+03  0.25464428665E+03  0.00000000000E+00 0.  1.
         23    2    1    2    0    0 -0.30187532562E+02 -0.27924981352E+02 -0.84873071181E+02  0.13137749242E+03  0.91463192585E+02 0.  0.
         23    2    1    2    0    0  0.30187532562E+02  0.27924981352E+02 -0.13233467154E+03  0.16070333816E+03  0.81375708286E+02 0.  0.
          5    1    4    4  502    0  0.26909824481E+02 -0.23483626964E+02 -0.76691393675E+02  0.84730627596E+02  0.47000000000E+01 0. -1.
         -5    1    4    4    0  502  0.32777080808E+01  0.51408608316E+02 -0.55643277867E+02  0.75972710568E+02  0.47000000000E+01 0.  1.
          5    1    3    3  503    0 -0.10638946594E+02 -0.51697735052E+02 -0.15298496713E+02  0.55154120389E+02  0.47000000000E+01 0. -1.
         -5    1    3    3    0  503 -0.19548585968E+02  0.23772753701E+02 -0.69574574468E+02  0.76223372034E+02  0.47000000000E+01 0.  1.
<mgrwt>
<rscale>  0 0.97924118E+02</rscale>
<asrwt>0</asrwt>
<pdfrwt beam="1">  1        1 0.57594684E-02 0.10028264E+03</pdfrwt>
<pdfrwt beam="2">  1       -1 0.39176043E-01 0.10028264E+03</pdfrwt>
<totfact> 0.80621206E+03</totfact>
</mgrwt>
</event>
<event>
 8    1  0.6836165E-004  0.9471757E+02  0.7546771E-02  0.1293244E+00
          1   -1    0    0  501    0  0.00000000000E+00  0.00000000000E+00  0.28605354831E+02  0.28605354831E+02  0.00000000000E+00 0. -1.
         -1   -1    0    0    0  501 -0.00000000000E+00 -0.00000000000E+00 -0.51014930057E+03  0.51014930057E+03  0.00000000000E+00 0.  1.
         23    2    1    2    0    0  0.22257812807E+02 -0.21887294024E+01 -0.68210066930E+02  0.11470711839E+03  0.89470157102E+02 0.  0.
         23    2    1    2    0    0 -0.22257812807E+02  0.21887294024E+01 -0.41333387880E+03  0.42404753700E+03  0.92039217209E+02 0.  0.
          5    1    3    3  502    0 -0.47986701528E+01  0.28188204314E+02  0.63287011524E+01  0.29660488127E+02  0.47000000000E+01 0. -1.
         -5    1    4    4    0  503  0.20929416438E+02  0.39329331764E+01 -0.24538970017E+02  0.32829247407E+02  0.47000000000E+01 0.  1.
          5    1    4    4  503    0 -0.43187229244E+02 -0.17442037740E+01 -0.38879490879E+03  0.39121828960E+03  0.47000000000E+01 0. -1.
         -5    1    3    3    0  502  0.27056482959E+02 -0.30376933716E+02 -0.74538768082E+02  0.85046630265E+02  0.47000000000E+01 0.  1.
<mgrwt>
<rscale>  0 0.94087711E+02</rscale>
<asrwt>0</asrwt>
<pdfrwt beam="1">  1        1 0.44008237E-02 0.94717571E+02</pdfrwt>
<pdfrwt beam="2">  1       -1 0.78484510E-01 0.94717571E+02</pdfrwt>
<totfact> 0.31759222E+03</totfact>
</mgrwt>
</event>
<event>
 8    1  0.6836165E-004  0.9353619E+02  0.7546771E-02  0.1299482E+00
         -2   -1    0    0    0  501 -0.00000000000E+00  0.00000000000E+00  0.36952653451E+03  0.36952653451E+03  0.00000000000E+00 0.  1.
          2   -1    0    0  501    0  0.00000000000E+00 -0.00000000000E+00 -0.34821952998E+02  0.34821952998E+02  0.00000000000E+00 0. -1.
         23    2    1    2    0    0  0.37808414846E+01  0.26261983475E+02  0.29645990106E+03  0.31086571479E+03  0.89694108824E+02 0.  0.
         23    2    1    2    0    0 -0.37808414846E+01 -0.26261983475E+02  0.38244680451E+02  0.93482772715E+02  0.81070257637E+02 0.  0.
          5    1    3    3  502    0  0.21141177227E+02 -0.21670591318E+02  0.46286074294E+02  0.55507247960E+02  0.47000000000E+01 0. -1.
         -5    1    4    4    0  503 -0.41556318921E+02 -0.20617661909E+02  0.17828575409E+02  0.49919572574E+02  0.47000000000E+01 0.  1.
          5    1    4    4  503    0  0.37775477436E+02 -0.56443215658E+01  0.20416105041E+02  0.43563200141E+02  0.47000000000E+01 0. -1.
         -5    1    3    3    0  502 -0.17360335742E+02  0.47932574793E+02  0.25017382676E+03  0.25535846683E+03  0.47000000000E+01 0.  1.
<mgrwt>
<rscale>  0 0.91405882E+02</rscale>
<asrwt>0</asrwt>
<pdfrwt beam="1">  1        2 0.53572238E-02 0.93536195E+02</pdfrwt>
<pdfrwt beam="2">  1       -2 0.56850233E-01 0.93536195E+02</pdfrwt>
<totfact> 0.39212484E+03</totfact>
</mgrwt>
</event>
<event>
 8    1  0.6836165E-004  0.1008902E+03  0.7546771E-02  0.1282178E+00
         -2   -1    0    0    0  501 -0.00000000000E+00  0.00000000000E+00  0.58850689368E+02  0.58850689368E+02  0.00000000000E+00 0.  1.
          2   -1    0    0  501    0  0.00000000000E+00 -0.00000000000E+00 -0.21926496115E+03  0.21926496115E+03  0.00000000000E+00 0. -1.
         23    2    1    2    0    0 -0.18087179415E+02 -0.82448902093E+01 -0.14958534833E+03  0.17664592902E+03  0.91830733052E+02 0.  0.
         23    2    1    2    0    0  0.18087179415E+02  0.82448902093E+01 -0.10828923456E+02  0.10146972150E+03  0.98912661088E+02 0.  0.
          5    1    4    4  502    0 -0.37039924723E+02 -0.62525951212E+01  0.12256531377E+02  0.39791500733E+02  0.47000000000E+01 0. -1.
         -5    1    4    4    0  502  0.55127104138E+02  0.14497485331E+02 -0.23085454833E+02  0.61678220762E+02  0.47000000000E+01 0.  1.
          5    1    3    3  503    0 -0.31272455310E+01 -0.45791522432E+02 -0.11249299163E+03  0.12158703203E+03  0.47000000000E+01 0. -1.
         -5    1    3    3    0  503 -0.14959933884E+02  0.37546632222E+02 -0.37092356692E+02  0.55058896992E+02  0.47000000000E+01 0.  1.
<mgrwt>
<rscale>  0 0.99110502E+02</rscale>
<asrwt>0</asrwt>
<pdfrwt beam="1">  1        2 0.33733071E-01 0.10089023E+03</pdfrwt>
<pdfrwt beam="2">  1       -2 0.90539522E-02 0.10089023E+03</pdfrwt>
<totfact> 0.10998741E+04</totfact>
</mgrwt>
</event>
<event>
 8    1  0.6836165E-004  0.1091601E+03  0.7546771E-02  0.1262821E+00
          1   -1    0    0  501    0  0.00000000000E+00  0.00000000000E+00  0.19307708968E+03  0.19307708968E+03  0.00000000000E+00 0. -1.
         -1   -1    0    0    0  501 -0.00000000000E+00 -0.00000000000E+00 -0.10121435852E+03  0.10121435852E+03  0.00000000000E+00 0.  1.
         23    2    1    2    0    0 -0.52752164143E+02  0.23681060454E+02  0.13899031047E+03  0.17673207295E+03  0.92586909220E+02 0.  0.
         23    2    1    2    0    0  0.52752164143E+02 -0.23681060454E+02 -0.47127579314E+02  0.11755937525E+03  0.90860412349E+02 0.  0.
          5    1    3    3  502    0  0.23455451467E+02  0.15523466926E+02  0.60729889300E+02  0.67092068706E+02  0.47000000000E+01 0.  1.
         -5    1    4    4    0  503  0.11994832409E+02  0.17477832883E+02 -0.54796031154E+02  0.58941035595E+02  0.47000000000E+01 0.  1.
          5    1    4    4  503    0  0.40757331734E+02 -0.41158893337E+02  0.76684518399E+01  0.58618339659E+02  0.47000000000E+01 0. -1.
         -5    1    3    3    0  502 -0.76207615610E+02  0.81575935282E+01  0.78260421172E+02  0.10964000425E+03  0.47000000000E+01 0. -1.
<mgrwt>
<rscale>  0 0.10879309E+03</rscale>
<asrwt>0</asrwt>
<pdfrwt beam="1">  1        1 0.29704168E-01 0.10916006E+03</pdfrwt>
<pdfrwt beam="2">  1       -1 0.15571440E-01 0.10916006E+03</pdfrwt>
<totfact> 0.43941903E+03</totfact>
</mgrwt>
</event>
<event>
 8    1  0.6836165E-004  0.3313247E+03  0.7546771E-02  0.1070726E+00
         -1   -1    0    0    0  501 -0.00000000000E+00  0.00000000000E+00  0.10959780154E+03  0.10959780154E+03  0.00000000000E+00 0.  1.
          1   -1    0    0  501    0  0.00000000000E+00 -0.00000000000E+00 -0.14881421920E+04  0.14881421920E+04  0.00000000000E+00 0. -1.
         23    2    1    2    0    0  0.12908225045E+03 -0.29037820822E+03 -0.22917377700E+03  0.40156740355E+03  0.88056960780E+02 0.  0.
         23    2    1    2    0    0 -0.12908225045E+03  0.29037820822E+03 -0.11493706134E+04  0.11961725900E+04  0.93778071971E+02 0.  0.
          5    1    4    4  502    0 -0.87639117488E+02  0.25536353559E+03 -0.10326936529E+04  0.10674124886E+04  0.47000000000E+01 0. -1.
         -5    1    4    4    0  502 -0.41443132958E+02  0.35014672633E+02 -0.11667696057E+03  0.12876010134E+03  0.47000000000E+01 0.  1.
          5    1    3    3  503    0 -0.50142365245E+01 -0.50066868048E+02 -0.60214620642E+02  0.78611223010E+02  0.47000000000E+01 0. -1.
         -5    1    3    3    0  503  0.13409648697E+03 -0.24031134017E+03 -0.16895915636E+03  0.32295618054E+03  0.47000000000E+01 0.  1.
<mgrwt>
<rscale>  0 0.33093059E+03</rscale>
<asrwt>0</asrwt>
<pdfrwt beam="1">  1        1 0.22894495E+00 0.33132470E+03</pdfrwt>
<pdfrwt beam="2">  1       -1 0.16861200E-01 0.33132470E+03</pdfrwt>
<totfact> 0.19315258E+02</totfact>
</mgrwt>
</event>
<event>
 8    1  0.6836165E-004  0.1177326E+03  0.7546771E-02  0.1247396E+00
         -2   -1    0    0    0  501 -0.00000000000E+00  0.00000000000E+00  0.30168381658E+02  0.30168381658E+02  0.00000000000E+00 0.  1.
          2   -1    0    0  501    0  0.00000000000E+00 -0.00000000000E+00 -0.66451433279E+03  0.66451433279E+03  0.00000000000E+00 0. -1.
         23    2    1    2    0    0  0.69703923565E+02  0.21001442436E+02 -0.12092410273E+03  0.16793519153E+03  0.90993914015E+02 0.  0.
         23    2    1    2    0    0 -0.69703923565E+02 -0.21001442436E+02 -0.51342184840E+03  0.52674752292E+03  0.92527082205E+02 0.  0.
          5    1    4    4  502    0 -0.47036333018E+02  0.31790026959E+02 -0.31552524640E+03  0.32062640807E+03  0.47000000000E+01 0. -1.
         -5    1    4    4    0  502 -0.22667590548E+02 -0.52791469395E+02 -0.19789660200E+03  0.20612111484E+03  0.47000000000E+01 0.  1.
          5    1    3    3  503    0  0.69917758070E+02  0.49587886591E+02 -0.77012261030E+02  0.11532748909E+03  0.47000000000E+01 0. -1.
         -5    1    3    3    0  503 -0.21383450534E+00 -0.28586444155E+02 -0.43911841700E+02  0.52607702441E+02  0.47000000000E+01 0.  1.
<mgrwt>
<rscale>  0 0.11743115E+03</rscale>
<asrwt>0</asrwt>
<pdfrwt beam="1">  1        2 0.10223296E+00 0.11773257E+03</pdfrwt>
<pdfrwt beam="2">  1       -2 0.46412899E-02 0.11773257E+03</pdfrwt>
<totfact> 0.93012271E+03</totfact>
</mgrwt>
</event>
<event>
 8    1  0.6836165E-004  0.9251604E+02  0.7546771E-02  0.1300227E+00
         -1   -1    0    0    0  501 -0.00000000000E+00  0.00000000000E+00  0.89451631291E+01  0.89451631291E+01  0.00000000000E+00 0.  1.
          1   -1    0    0  501    0  0.00000000000E+00 -0.00000000000E+00 -0.93297681101E+03  0.93297681101E+03  0.00000000000E+00 0. -1.
         23    2    1    2    0    0  0.11495126097E+02  0.60185078284E+01 -0.38758214333E+03  0.39847099657E+03  0.91601620714E+02 0.  0.
         23    2    1    2    0    0 -0.11495126097E+02 -0.60185078284E+01 -0.53644950455E+03  0.54345097757E+03  0.85979844901E+02 0.  0.
          5    1    3    3  502    0 -0.10375475564E+02  0.38749622364E+02 -0.29507750187E+03  0.29782881969E+03  0.47000000000E+01 0. -1.
         -5    1    3    3    0  502  0.21870601661E+02 -0.32731114536E+02 -0.92504641464E+02  0.10064217689E+03  0.47000000000E+01 0.  1.
          5    1    4    4  503    0 -0.22506002223E+01  0.37397140914E+02 -0.16157149975E+03  0.16592483503E+03  0.47000000000E+01 0. -1.
         -5    1    4    4    0  503 -0.92445258748E+01 -0.43415648743E+02 -0.37487800480E+03  0.37752614253E+03  0.47000000000E+01 0.  1.
<mgrwt>
<rscale>  0 0.91092876E+02</rscale>
<asrwt>0</asrwt>
<pdfrwt beam="1">  1        1 0.14353495E+00 0.92516038E+02</pdfrwt>
<pdfrwt beam="2">  1       -1 0.13761784E-02 0.92516038E+02</pdfrwt>
<totfact> 0.19646249E+04</totfact>
</mgrwt>
</event>
<event>
 8    1  0.6836165E-004  0.2354319E+03  0.7546771E-02  0.1122991E+00
         -1   -1    0    0    0  501 -0.00000000000E+00  0.00000000000E+00  0.45457732740E+02  0.45457732740E+02  0.00000000000E+00 0.  1.
          1   -1    0    0  501    0  0.00000000000E+00 -0.00000000000E+00 -0.17497655155E+04  0.17497655155E+04  0.00000000000E+00 0. -1.
         23    2    1    2    0    0 -0.11419597149E+03  0.18511850208E+03 -0.35542199788E+03  0.42594568410E+03  0.88291276506E+02 0.  0.
         23    2    1    2    0    0  0.11419597149E+03 -0.18511850208E+03 -0.13488857849E+04  0.13692775642E+04  0.90103314616E+02 0.  0.
          5    1    4    4  502    0  0.25713017852E+02 -0.99963216106E+02 -0.43156875241E+03  0.44376512022E+03  0.47000000000E+01 0. -1.
         -5    1    4    4    0  502  0.88482953634E+02 -0.85155285973E+02 -0.91731703249E+03  0.92551244395E+03  0.47000000000E+01 0.  1.
          5    1    3    3  503    0 -0.55740395842E+02  0.10634816488E+03 -0.27098938357E+03  0.29643592884E+03  0.47000000000E+01 0. -1.
         -5    1    3    3    0  503 -0.58455575645E+02  0.78770337201E+02 -0.84432614317E+02  0.12950975526E+03  0.47000000000E+01 0.  1.
<mgrwt>
<rscale>  0 0.23525985E+03</rscale>
<asrwt>0</asrwt>
<pdfrwt beam="1">  1        1 0.26919469E+00 0.23543192E+03</pdfrwt>
<pdfrwt beam="2">  1       -1 0.69934974E-02 0.23543192E+03</pdfrwt>
<totfact> 0.52212715E+02</totfact>
</mgrwt>
</event>
<event>
 8    1  0.6836165E-004  0.1053520E+03  0.7546771E-02  0.1270622E+00
          2   -1    0    0  501    0  0.00000000000E+00  0.00000000000E+00  0.58406711835E+03  0.58406711835E+03  0.00000000000E+00 0. -1.
         -2   -1    0    0    0  501 -0.00000000000E+00 -0.00000000000E+00 -0.19362701157E+02  0.19362701157E+02  0.00000000000E+00 0.  1.
         23    2    1    2    0    0 -0.12882856388E+02  0.44228887501E+02  0.21823888704E+03  0.24130083492E+03  0.92063666217E+02 0.  0.
         23    2    1    2    0    0  0.12882856388E+02 -0.44228887501E+02  0.34646553015E+03  0.36212898459E+03  0.94746374166E+02 0.  0.
          5    1    3    3  502    0 -0.47685957147E+02  0.45207568328E+01  0.81562258818E+02  0.94704169997E+02  0.47000000000E+01 0. -1.
         -5    1    3    3    0  502  0.34803100759E+02  0.39708130668E+02  0.13667662822E+03  0.14659666492E+03  0.47000000000E+01 0.  1.
          5    1    4    4  503    0 -0.12026507949E+02 -0.45708100560E+02  0.32620424659E+03  0.32964400168E+03  0.47000000000E+01 0. -1.
         -5    1    4    4    0  503  0.24909364337E+02  0.14792130593E+01  0.20261283559E+02  0.32484982906E+02  0.47000000000E+01 0.  1.
<mgrwt>
<rscale>  0 0.10474526E+03</rscale>
<asrwt>0</asrwt>
<pdfrwt beam="1">  1        2 0.89856466E-01 0.10535197E+03</pdfrwt>
<pdfrwt beam="2">  1       -2 0.29788776E-02 0.10535197E+03</pdfrwt>
<totfact> 0.20536474E+04</totfact>
</mgrwt>
</event>
<event>
 8    1  0.6836165E-004  0.1212670E+03  0.7546771E-02  0.1243555E+00
         -1   -1    0    0    0  501 -0.00000000000E+00  0.00000000000E+00  0.24627853212E+02  0.24627853212E+02  0.00000000000E+00 0.  1.
          1   -1    0    0  501    0  0.00000000000E+00 -0.00000000000E+00 -0.60257501014E+03  0.60257501014E+03  0.00000000000E+00 0. -1.
         23    2    1    2    0    0 -0.68310080801E+02 -0.39819557928E+02 -0.22047928048E+03  0.25162829177E+03  0.91944655998E+02 0.  0.
         23    2    1    2    0    0  0.68310080801E+02  0.39819557928E+02 -0.35746787645E+03  0.37557457158E+03  0.83792074756E+02 0.  0.
          5    1    4    4  502    0  0.46008784238E+02  0.34481862886E+02 -0.34351175303E+03  0.34832200844E+03  0.47000000000E+01 0. -1.
         -5    1    3    3    0  503 -0.84182236047E+02 -0.52569361399E+02 -0.16859814787E+03  0.19569775698E+03  0.47000000000E+01 0.  1.
          5    1    3    3  503    0  0.15872155246E+02  0.12749803470E+02 -0.51881132611E+02  0.55930534788E+02  0.47000000000E+01 0. -1.
         -5    1    4    4    0  502  0.22301296564E+02  0.53376950420E+01 -0.13956123421E+02  0.27252563141E+02  0.47000000000E+01 0.  1.
<mgrwt>
<rscale>  0 0.11972311E+03</rscale>
<asrwt>0</asrwt>
<pdfrwt beam="1">  1        1 0.92703851E-01 0.12126700E+03</pdfrwt>
<pdfrwt beam="2">  1       -1 0.37889004E-02 0.12126700E+03</pdfrwt>
<totfact> 0.88573513E+03</totfact>
</mgrwt>
</event>
<event>
 8    1  0.6836165E-004  0.1100193E+03  0.7546771E-02  0.1268641E+00
          1   -1    0    0  501    0  0.00000000000E+00  0.00000000000E+00  0.25697040427E+02  0.25697040427E+02  0.00000000000E+00 0. -1.
         -1   -1    0    0    0  501 -0.00000000000E+00 -0.00000000000E+00 -0.40712140708E+03  0.40712140708E+03  0.00000000000E+00 0.  1.
         23    2    1    2    0    0 -0.18018339797E+02 -0.32064746185E+01 -0.15894866790E+03  0.18462560931E+03  0.92124885556E+02 0.  0.
         23    2    1    2    0    0  0.18018339797E+02  0.32064746185E+01 -0.22247569875E+03  0.24819283819E+03  0.10848643393E+03 0.  0.
          5    1    4    4  502    0  0.20731280273E+02 -0.47557076020E+02 -0.15540005787E+03  0.16389853400E+03  0.47000000000E+01 0. -1.
         -5    1    3    3    0  503 -0.43257295235E+02 -0.31811934651E+02 -0.75665777245E+02  0.92900982898E+02  0.47000000000E+01 0.  1.
          5    1    3    3  503    0  0.25238955438E+02  0.28605460032E+02 -0.83282890656E+02  0.91724626417E+02  0.47000000000E+01 0. -1.
         -5    1    4    4    0  502 -0.27129404755E+01  0.50763550638E+02 -0.67075640881E+02  0.84294304191E+02  0.47000000000E+01 0.  1.
<mgrwt>
<rscale>  0 0.10575409E+03</rscale>
<asrwt>0</asrwt>
<pdfrwt beam="1">  1        1 0.39533911E-02 0.11001931E+03</pdfrwt>
<pdfrwt beam="2">  1       -1 0.62634058E-01 0.11001931E+03</pdfrwt>
<totfact> 0.57845407E+03</totfact>
</mgrwt>
</event>
<event>
 7    1  0.7052797E-004  0.2071897E+03  0.7546771E-02  0.1166973E+00
         -1   -1    0    0    0  501 -0.00000000000E+00  0.00000000000E+00  0.28838538395E+02  0.28838538395E+02  0.00000000000E+00 0.  1.
          1   -1    0    0  501    0  0.00000000000E+00 -0.00000000000E+00 -0.12311455464E+04  0.12311455464E+04  0.00000000000E+00 0. -1.
         23    2    1    2    0    0 -0.67893842270E+02 -0.38197453661E+02 -0.17738981120E+03  0.21433461119E+03  0.91670939509E+02 0.  0.
          5    1    1    2  502    0  0.11954052685E+03 -0.23194688389E+02 -0.72409387852E+03  0.73427649154E+03  0.47000000000E+01 0. -1.
         -5    1    3    3    0  503 -0.39549268186E+02  0.27205222589E+02 -0.82447856861E+02  0.95519672587E+02  0.47000000000E+01 0.  1.
          5    1    3    3  503    0 -0.28344574084E+02 -0.65402676250E+02 -0.94941954342E+02  0.11881493860E+03  0.47000000000E+01 0. -1.
         -5    1    1    2    0  502 -0.51646684583E+02  0.61392142050E+02 -0.30082331829E+03  0.31137298207E+03  0.47000000000E+01 0.  1.
<mgrwt>
<rscale>  0 0.18086013E+03</rscale>
<asrwt>0</asrwt>
<pdfrwt beam="1">  1        1 0.18940695E+00 0.20718967E+03</pdfrwt>
<pdfrwt beam="2">  1       -1 0.44366996E-02 0.20718967E+03</pdfrwt>
<totfact> 0.22889647E+03</totfact>
</mgrwt>
</event>
<event>
 8    1  0.6836165E-004  0.1060163E+03  0.7546771E-02  0.1268231E+00
         -2   -1    0    0    0  501 -0.00000000000E+00  0.00000000000E+00  0.15147636071E+03  0.15147636071E+03  0.00000000000E+00 0.  1.
          2   -1    0    0  501    0  0.00000000000E+00 -0.00000000000E+00 -0.75692623379E+02  0.75692623379E+02  0.00000000000E+00 0. -1.
         23    2    1    2    0    0  0.15414437061E+02 -0.48854321211E+02  0.21219448493E+02  0.10811897218E+03  0.92817549956E+02 0.  0.
         23    2    1    2    0    0 -0.15414437061E+02  0.48854321211E+02  0.54564288838E+02  0.11905001191E+03  0.92581284007E+02 0.  0.
          5    1    4    4  502    0  0.26267599751E+02  0.54782911597E+02  0.19269278877E+02  0.63910478860E+02  0.47000000000E+01 0. -1.
         -5    1    4    4    0  502 -0.41682036812E+02 -0.59285903853E+01  0.35295009961E+02  0.55139533050E+02  0.47000000000E+01 0.  1.
          5    1    3    3  503    0 -0.11594980024E+02 -0.18621643844E+02 -0.33216625068E+02  0.40082956005E+02  0.47000000000E+01 0. -1.
         -5    1    3    3    0  503  0.27009417086E+02 -0.30232677367E+02  0.54436073561E+02  0.68036016174E+02  0.47000000000E+01 0.  1.
<mgrwt>
<rscale>  0 0.10596452E+03</rscale>
<asrwt>0</asrwt>
<pdfrwt beam="1">  1        2 0.11645019E-01 0.10601626E+03</pdfrwt>
<pdfrwt beam="2">  1       -2 0.23304056E-01 0.10601626E+03</pdfrwt>
<totfact> 0.78846030E+03</totfact>
</mgrwt>
</event>
<event>
 8    1  0.6836165E-004  0.9528414E+02  0.7546771E-02  0.1291329E+00
          1   -1    0    0  501    0  0.00000000000E+00  0.00000000000E+00  0.56155889357E+02  0.56155889357E+02  0.00000000000E+00 0. -1.
         -1   -1    0    0    0  501 -0.00000000000E+00 -0.00000000000E+00 -0.32737635316E+03  0.32737635316E+03  0.00000000000E+00 0.  1.
         23    2    1    2    0    0 -0.12267669597E+02 -0.18583846112E+02  0.13001992586E+01  0.95293013558E+02  0.92645630556E+02 0.  0.
         23    2    1    2    0    0  0.12267669597E+02  0.18583846112E+02 -0.27252066306E+03  0.28823922896E+03  0.91205735904E+02 0.  0.
          5    1    4    4  502    0  0.13472890194E+02  0.50422078021E+02 -0.10167404543E+03  0.11438359251E+03  0.47000000000E+01 0. -1.
         -5    1    3    3    0  503  0.30417134564E+02  0.95786807415E+01  0.22942449872E+02  0.39565126134E+02  0.47000000000E+01 0.  1.
          5    1    3    3  503    0 -0.42684804162E+02 -0.28162526854E+02 -0.21642250614E+02  0.55727887424E+02  0.47000000000E+01 0. -1.
         -5    1    4    4    0  502 -0.12052205973E+01 -0.31838231909E+02 -0.17084661763E+03  0.17385563645E+03  0.47000000000E+01 0.  1.
<mgrwt>
<rscale>  0 0.94932345E+02</rscale>
<asrwt>0</asrwt>
<pdfrwt beam="1">  1        1 0.86393676E-02 0.95284143E+02</pdfrwt>
<pdfrwt beam="2">  1       -1 0.50365593E-01 0.95284143E+02</pdfrwt>
<totfact> 0.29951156E+03</totfact>
</mgrwt>
</event>
<event>
 8    1  0.6836165E-004  0.1061143E+03  0.7546771E-02  0.1270482E+00
          2   -1    0    0  501    0  0.00000000000E+00  0.00000000000E+00  0.26298807792E+03  0.26298807792E+03  0.00000000000E+00 0. -1.
         -2   -1    0    0    0  501 -0.00000000000E+00 -0.00000000000E+00 -0.42419828482E+02  0.42419828482E+02  0.00000000000E+00 0.  1.
         23    2    1    2    0    0 -0.47151564313E+02 -0.13443919342E+02  0.77702192923E+02  0.12744456185E+03  0.88320306701E+02 0.  0.
         23    2    1    2    0    0  0.47151564313E+02  0.13443919342E+02  0.14286605652E+03  0.17796334456E+03  0.94107560354E+02 0.  0.
          5    1    3    3  502    0  0.66886139943E+01  0.21882675105E+02  0.53700539666E+02  0.58561309645E+02  0.47000000000E+01 0. -1.
         -5    1    3    3    0  502 -0.53840178307E+02 -0.35326594447E+02  0.24001653257E+02  0.68883252205E+02  0.47000000000E+01 0.  1.
          5    1    4    4  503    0  0.62906660380E+02  0.37903326441E+02  0.11954134809E+03  0.14037853817E+03  0.47000000000E+01 0. -1.
         -5    1    4    4    0  503 -0.15755096067E+02 -0.24459407099E+02  0.23324708426E+02  0.37584806384E+02  0.47000000000E+01 0.  1.
<mgrwt>
<rscale>  0 0.10481641E+03</rscale>
<asrwt>0</asrwt>
<pdfrwt beam="1">  1        2 0.40459703E-01 0.10611429E+03</pdfrwt>
<pdfrwt beam="2">  1       -2 0.65261276E-02 0.10611429E+03</pdfrwt>
<totfact> 0.15040556E+04</totfact>
</mgrwt>
</event>
<event>
 8    1  0.6836165E-004  0.1359261E+03  0.7546771E-02  0.1222836E+00
          2   -1    0    0  501    0  0.00000000000E+00  0.00000000000E+00  0.12738869210E+03  0.12738869210E+03  0.00000000000E+00 0. -1.
         -2   -1    0    0    0  501 -0.00000000000E+00 -0.00000000000E+00 -0.25465184143E+03  0.25465184143E+03  0.00000000000E+00 0.  1.
         23    2    1    2    0    0  0.56151264695E+02 -0.65086196597E+02 -0.19378046477E+03  0.23071157792E+03  0.91037278876E+02 0.  0.
         23    2    1    2    0    0 -0.56151264695E+02  0.65086196597E+02  0.66517315443E+02  0.15132895562E+03  0.10529350426E+03 0.  0.
          5    1    3    3  502    0  0.16334473649E+02 -0.68677585010E+02 -0.66052618656E+02  0.96790826753E+02  0.47000000000E+01 0. -1.
         -5    1    4    4    0  503 -0.43314575439E+02  0.94183289136E+02  0.51350835515E+02  0.11578273924E+03  0.47000000000E+01 0.  1.
          5    1    4    4  503    0 -0.12836689255E+02 -0.29097092539E+02  0.15166479928E+02  0.35546216376E+02  0.47000000000E+01 0. -1.
         -5    1    3    3    0  502  0.39816791046E+02  0.35913884130E+01 -0.12772784612E+03  0.13392075117E+03  0.47000000000E+01 0.  1.
<mgrwt>
<rscale>  0 0.13316339E+03</rscale>
<asrwt>0</asrwt>
<pdfrwt beam="1">  1        2 0.19598261E-01 0.13592608E+03</pdfrwt>
<pdfrwt beam="2">  1       -2 0.39177206E-01 0.13592608E+03</pdfrwt>
<totfact> 0.17164416E+03</totfact>
</mgrwt>
</event>
<event>
 7    1  0.1101207E-003  0.4696408E+03  0.7546771E-02  0.1070980E+00
          1   -1    0    0  501    0  0.00000000000E+00  0.00000000000E+00  0.68330813831E+03  0.68330813831E+03  0.00000000000E+00 0. -1.
         -1   -1    0    0    0  501 -0.00000000000E+00 -0.00000000000E+00 -0.29923789639E+03  0.29923789639E+03  0.00000000000E+00 0.  1.
         23    2    1    2    0    0  0.37715878458E+02  0.61098680223E+02  0.48815132233E+03  0.50151032854E+03  0.89807348923E+02 0.  0.
          5    1    3    3  502    0 -0.63264053492E+01  0.64502693835E+02  0.36150336356E+03  0.36729741733E+03  0.47000000000E+01 0. -1.
         -5    1    1    2    0  503  0.93274258692E+01 -0.25777798345E+03 -0.10555653683E+03  0.27874856428E+03  0.47000000000E+01 0.  1.
          5    1    1    2  503    0 -0.47043304327E+02  0.19667930322E+03  0.14754564250E+01  0.20228714188E+03  0.47000000000E+01 0. -1.
         -5    1    3    3    0  502  0.44042283807E+02 -0.34040136115E+01  0.12664795878E+03  0.13421291120E+03  0.47000000000E+01 0.  1.
<mgrwt>
<rscale>  0 0.33035583E+03</rscale>
<asrwt>0</asrwt>
<pdfrwt beam="1">  1        1 0.10512433E+00 0.46964080E+03</pdfrwt>
<pdfrwt beam="2">  1       -1 0.46036600E-01 0.46964080E+03</pdfrwt>
<totfact> 0.13783369E+02</totfact>
</mgrwt>
</event>
<event>
 8    1  0.6836165E-004  0.9664752E+02  0.7546771E-02  0.1290666E+00
          1   -1    0    0  501    0  0.00000000000E+00  0.00000000000E+00  0.47517596401E+03  0.47517596401E+03  0.00000000000E+00 0. -1.
         -1   -1    0    0    0  501 -0.00000000000E+00 -0.00000000000E+00 -0.35670617507E+02  0.35670617507E+02  0.00000000000E+00 0.  1.
         23    2    1    2    0    0 -0.42865045369E+01  0.17408551861E+02  0.39418867018E+02  0.99252199958E+02  0.89306888427E+02 0.  0.
         23    2    1    2    0    0  0.42865045369E+01 -0.17408551861E+02  0.40008647949E+03  0.41159438156E+03  0.94970058781E+02 0.  0.
          5    1    4    4  502    0  0.25366874125E+02 -0.41808237964E+02  0.33726880960E+03  0.34082803141E+03  0.47000000000E+01 0. -1.
         -5    1    4    4    0  502 -0.21080369588E+02  0.24399686103E+02  0.62817669889E+02  0.70766350155E+02  0.47000000000E+01 0.  1.
          5    1    3    3  503    0 -0.16896507646E+02 -0.21461232233E+02  0.49653061123E+02  0.56864689734E+02  0.47000000000E+01 0. -1.
         -5    1    3    3    0  503  0.12610003110E+02  0.38869784095E+02 -0.10234194106E+02  0.42387510224E+02  0.47000000000E+01 0.  1.
<mgrwt>
<rscale>  0 0.95226798E+02</rscale>
<asrwt>0</asrwt>
<pdfrwt beam="1">  1        1 0.73103990E-01 0.96647524E+02</pdfrwt>
<pdfrwt beam="2">  1       -1 0.54877876E-02 0.96647524E+02</pdfrwt>
<totfact> 0.69211372E+03</totfact>
</mgrwt>
</event>
<event>
 8    1  0.6836165E-004  0.9594092E+02  0.7546771E-02  0.1296489E+00
         -2   -1    0    0    0  501 -0.00000000000E+00  0.00000000000E+00  0.16117474625E+02  0.16117474625E+02  0.00000000000E+00 0.  1.
          2   -1    0    0  501    0  0.00000000000E+00 -0.00000000000E+00 -0.63694991587E+03  0.63694991587E+03  0.00000000000E+00 0. -1.
         23    2    1    2    0    0  0.17673363725E+02 -0.20135629617E+02 -0.44489067456E+03  0.45266737617E+03  0.79134377913E+02 0.  0.
         23    2    1    2    0    0 -0.17673363725E+02  0.20135629617E+02 -0.17594176668E+03  0.20040001433E+03  0.92124204822E+02 0.  0.
          5    1    4    4  502    0 -0.95928807176E+01  0.41442097147E+02 -0.17144077935E+03  0.17670173061E+03  0.47000000000E+01 0. -1.
         -5    1    3    3    0  503 -0.13442580314E+02  0.24742900871E+02 -0.16700918035E+03  0.16943160989E+03  0.47000000000E+01 0.  1.
          5    1    3    3  503    0  0.31115944040E+02 -0.44878530487E+02 -0.27788149421E+03  0.28323576628E+03  0.47000000000E+01 0. -1.
         -5    1    4    4    0  502 -0.80804830077E+01 -0.21306467530E+02 -0.45009873320E+01  0.23698283719E+02  0.47000000000E+01 0.  1.
<mgrwt>
<rscale>  0 0.92679816E+02</rscale>
<asrwt>0</asrwt>
<pdfrwt beam="1">  1        2 0.97992287E-01 0.95940922E+02</pdfrwt>
<pdfrwt beam="2">  1       -2 0.24796117E-02 0.95940922E+02</pdfrwt>
<totfact> 0.24095888E+04</totfact>
</mgrwt>
</event>
<event>
 8    1  0.6836165E-004  0.9350209E+02  0.7546771E-02  0.1294592E+00
         -1   -1    0    0    0  501 -0.00000000000E+00  0.00000000000E+00  0.12578639130E+03  0.12578639130E+03  0.00000000000E+00 0.  1.
          1   -1    0    0  501    0  0.00000000000E+00 -0.00000000000E+00 -0.81477723180E+02  0.81477723180E+02  0.00000000000E+00 0. -1.
         23    2    1    2    0    0  0.80622940380E+01 -0.83466094835E+01  0.61897240263E+02  0.11213344459E+03  0.92779170980E+02 0.  0.
         23    2    1    2    0    0 -0.80622940380E+01  0.83466094835E+01 -0.17588572143E+02  0.95130669894E+02  0.92767559036E+02 0.  0.
          5    1    4    4  502    0 -0.48705761602E+02  0.41727979686E+01 -0.21914141093E+02  0.53777160914E+02  0.47000000000E+01 0. -1.
         -5    1    3    3    0  503  0.44751808781E+02 -0.19310240401E+02  0.53735920410E+02  0.72699717440E+02  0.47000000000E+01 0.  1.
          5    1    3    3  503    0 -0.36689514743E+02  0.10963630918E+02  0.81613198527E+01  0.39433727147E+02  0.47000000000E+01 0. -1.
         -5    1    4    4    0  502  0.40643467564E+02  0.41738115149E+01  0.43255689508E+01  0.41353508980E+02  0.47000000000E+01 0.  1.
<mgrwt>
<rscale>  0 0.93499210E+02</rscale>
<asrwt>0</asrwt>
<pdfrwt beam="1">  1        1 0.12535034E-01 0.93502091E+02</pdfrwt>
<pdfrwt beam="2">  1       -1 0.19351752E-01 0.93502091E+02</pdfrwt>
<totfact> 0.91748080E+03</totfact>
</mgrwt>
</event>
<event>
 8    1  0.6836165E-004  0.9383639E+02  0.7546771E-02  0.1300315E+00
          1   -1    0    0  501    0  0.00000000000E+00  0.00000000000E+00  0.79048343341E+02  0.79048343341E+02  0.00000000000E+00 0. -1.
         -1   -1    0    0    0  501 -0.00000000000E+00 -0.00000000000E+00 -0.10075511971E+03  0.10075511971E+03  0.00000000000E+00 0.  1.
         23    2    1    2    0    0 -0.75985252019E+01 -0.17697766615E+02  0.12172945799E+01  0.83207490374E+02  0.80938594749E+02 0.  0.
         23    2    1    2    0    0  0.75985252019E+01  0.17697766615E+02 -0.22924070953E+02  0.96595972681E+02  0.91838556069E+02 0.  0.
          5    1    4    4  502    0 -0.32689447722E+02 -0.18097647531E+02  0.45741958562E+00  0.37661971154E+02  0.47000000000E+01 0. -1.
         -5    1    3    3    0  503  0.64999513113E+01 -0.38766713819E+02 -0.24690631608E+02  0.46656454608E+02  0.47000000000E+01 0.  1.
          5    1    3    3  503    0 -0.14098476513E+02  0.21068947204E+02  0.25907926187E+02  0.36551035767E+02  0.47000000000E+01 0. -1.
         -5    1    4    4    0  502  0.40287972924E+02  0.35795414145E+02 -0.23381490539E+02  0.58934001527E+02  0.47000000000E+01 0.  1.
<mgrwt>
<rscale>  0 0.91055770E+02</rscale>
<asrwt>0</asrwt>
<pdfrwt beam="1">  1        1 0.12161284E-01 0.93836394E+02</pdfrwt>
<pdfrwt beam="2">  1       -1 0.15500788E-01 0.93836394E+02</pdfrwt>
<totfact> 0.13521775E+04</totfact>
</mgrwt>
</event>
<event>
 8    1  0.6836165E-004  0.1224964E+03  0.7546771E-02  0.1239409E+00
         -1   -1    0    0    0  501 -0.00000000000E+00  0.00000000000E+00  0.29803345758E+02  0.29803345758E+02  0.00000000000E+00 0.  1.
          1   -1    0    0  501    0  0.00000000000E+00 -0.00000000000E+00 -0.95102282488E+03  0.95102282488E+03  0.00000000000E+00 0. -1.
         23    2    1    2    0    0  0.83556104460E+01 -0.79992820530E+02 -0.12368114251E+03  0.17407584570E+03  0.92394304374E+02 0.  0.
         23    2    1    2    0    0 -0.83556104460E+01  0.79992820530E+02 -0.79753833661E+03  0.80675032494E+03  0.91159315833E+02 0.  0.
          5    1    4    4  502    0 -0.44822489624E+02  0.16794858530E+02 -0.34712854367E+03  0.35044462998E+03  0.47000000000E+01 0. -1.
         -5    1    4    4    0  502  0.36466879178E+02  0.63197962001E+02 -0.45040979294E+03  0.45630569496E+03  0.47000000000E+01 0.  1.
          5    1    3    3  503    0 -0.18536948694E+02 -0.25623554798E+02 -0.10600455754E+03  0.11072145793E+03  0.47000000000E+01 0. -1.
         -5    1    3    3    0  503  0.26892559140E+02 -0.54369265732E+02 -0.17676584974E+02  0.63354387769E+02  0.47000000000E+01 0.  1.
<mgrwt>
<rscale>  0 0.12226357E+03</rscale>
<asrwt>0</asrwt>
<pdfrwt beam="1">  1        1 0.14631120E+00 0.12249643E+03</pdfrwt>
<pdfrwt beam="2">  1       -1 0.45851304E-02 0.12249643E+03</pdfrwt>
<totfact> 0.34170965E+03</totfact>
</mgrwt>
</event>
<event>
 8    1  0.6836165E-004  0.9585994E+02  0.7546771E-02  0.1289670E+00
         -2   -1    0    0    0  501 -0.00000000000E+00  0.00000000000E+00  0.42518148061E+02  0.42518148061E+02  0.00000000000E+00 0.  1.
          2   -1    0    0  501    0  0.00000000000E+00 -0.00000000000E+00 -0.26144875519E+03  0.26144875519E+03  0.00000000000E+00 0. -1.
         23    2    1    2    0    0  0.10564172926E+02  0.17026384424E+02 -0.44663271605E+02  0.10507439103E+03  0.92974836943E+02 0.  0.
         23    2    1    2    0    0 -0.10564172926E+02 -0.17026384424E+02 -0.17426733552E+03  0.19889251222E+03  0.93742347256E+02 0.  0.
          5    1    3    3  502    0 -0.20688873147E+02 -0.30165307347E+02 -0.26610891509E+02  0.45477519571E+02  0.47000000000E+01 0. -1.
         -5    1    4    4    0  503  0.16024182069E+02  0.31938907209E+02 -0.97279260059E+02  0.10374108464E+03  0.47000000000E+01 0.  1.
          5    1    4    4  503    0 -0.26588354995E+02 -0.48965291633E+02 -0.76988075463E+02  0.95151427575E+02  0.47000000000E+01 0. -1.
         -5    1    3    3    0  502  0.31253046073E+02  0.47191691771E+02 -0.18052380096E+02  0.59596871463E+02  0.47000000000E+01 0.  1.
<mgrwt>
<rscale>  0 0.95671777E+02</rscale>
<asrwt>0</asrwt>
<pdfrwt beam="1">  1        2 0.40222884E-01 0.95859935E+02</pdfrwt>
<pdfrwt beam="2">  1       -2 0.65412537E-02 0.95859935E+02</pdfrwt>
<totfact> 0.14935816E+04</totfact>
</mgrwt>
</event>
<event>
 8    1  0.6836165E-004  0.1209279E+03  0.7546771E-02  0.1241839E+00
         -4   -1    0    0    0  501 -0.00000000000E+00  0.00000000000E+00  0.14290614794E+03  0.14290614794E+03  0.00000000000E+00 0.  1.
          4   -1    0    0  501    0  0.00000000000E+00 -0.00000000000E+00 -0.10272767677E+03  0.10272767677E+03  0.00000000000E+00 0. -1.
         23    2    1    2    0    0 -0.10744928383E+02  0.79447183467E+02  0.83674190457E+01  0.12121703686E+03  0.90533131382E+02 0.  0.
         23    2    1    2    0    0  0.10744928383E+02 -0.79447183467E+02  0.31811052120E+02  0.12441678785E+03  0.89667639731E+02 0.  0.
          5    1    4    4  502    0  0.40063016667E+02 -0.75894655896E+02  0.82451618930E+01  0.86343018205E+02  0.47000000000E+01 0. -1.
         -5    1    3    3    0  503 -0.31169923532E+02 -0.57221866206E+01 -0.52221003400E+01  0.32460250841E+02  0.47000000000E+01 0.  1.
          5    1    3    3  503    0  0.20424995149E+02  0.85169370087E+02  0.13589519386E+02  0.88756786023E+02  0.47000000000E+01 0. -1.
         -5    1    4    4    0  502 -0.29318088284E+02 -0.35525275711E+01  0.23565890227E+02  0.38073769645E+02  0.47000000000E+01 0.  1.
<mgrwt>
<rscale>  0 0.12076593E+03</rscale>
<asrwt>0</asrwt>
<pdfrwt beam="1">  1        4 0.15804258E-01 0.12092790E+03</pdfrwt>
<pdfrwt beam="2">  1       -4 0.21985561E-01 0.12092790E+03</pdfrwt>
<totfact> 0.10504655E+03</totfact>
</mgrwt>
</event>
<event>
 8    1  0.6836165E-004  0.1013802E+03  0.7546771E-02  0.1278514E+00
         -2   -1    0    0    0  501 -0.00000000000E+00  0.00000000000E+00  0.19420114915E+02  0.19420114915E+02  0.00000000000E+00 0.  1.
          2   -1    0    0  501    0  0.00000000000E+00 -0.00000000000E+00 -0.51836137200E+03  0.51836137200E+03  0.00000000000E+00 0. -1.
         23    2    1    2    0    0  0.25589927598E+02 -0.36777876434E+02 -0.24601693721E+03  0.26529543847E+03  0.88599546801E+02 0.  0.
         23    2    1    2    0    0 -0.25589927598E+02  0.36777876434E+02 -0.25292431988E+03  0.27248604844E+03  0.90942170744E+02 0.  0.
          5    1    3    3  502    0  0.39171700919E+02  0.38298708026E+01 -0.19278527621E+03  0.19681804488E+03  0.47000000000E+01 0. -1.
         -5    1    4    4    0  503 -0.21141829474E+02 -0.43348666026E+01 -0.71546442356E+01  0.23217384782E+02  0.47000000000E+01 0.  1.
          5    1    4    4  503    0 -0.44480981244E+01  0.41112743037E+02 -0.24576967564E+03  0.24926866366E+03  0.47000000000E+01 0. -1.
         -5    1    3    3    0  502 -0.13581773321E+02 -0.40607747237E+02 -0.53231660992E+02  0.68477393599E+02  0.47000000000E+01 0.  1.
<mgrwt>
<rscale>  0 0.10085203E+03</rscale>
<asrwt>0</asrwt>
<pdfrwt beam="1">  1        2 0.79747920E-01 0.10138015E+03</pdfrwt>
<pdfrwt beam="2">  1       -2 0.29877094E-02 0.10138015E+03</pdfrwt>
<totfact> 0.23243303E+04</totfact>
</mgrwt>
</event>
<event>
 8    1  0.6836165E-004  0.1394219E+03  0.7546771E-02  0.1220859E+00
          4   -1    0    0  501    0  0.00000000000E+00  0.00000000000E+00  0.11523687895E+03  0.11523687895E+03  0.00000000000E+00 0. -1.
         -4   -1    0    0    0  501 -0.00000000000E+00 -0.00000000000E+00 -0.15663683455E+03  0.15663683455E+03  0.00000000000E+00 0.  1.
         23    2    1    2    0    0 -0.72049644928E+02 -0.30432622181E+02 -0.55638574715E+02  0.15011366276E+03  0.11541735105E+03 0.  0.
         23    2    1    2    0    0  0.72049644928E+02  0.30432622181E+02  0.14238619116E+02  0.12176005075E+03  0.92225136792E+02 0.  0.
          5    1    4    4  502    0  0.52186409594E+02 -0.22147060062E+02  0.28437058561E+02  0.63597719419E+02  0.47000000000E+01 0. -1.
         -5    1    4    4    0  502  0.19863235334E+02  0.52579682243E+02 -0.14198439446E+02  0.58162331327E+02  0.47000000000E+01 0.  1.
          5    1    3    3  503    0  0.26036110113E+02  0.10458602154E+02  0.30728487216E+01  0.28614573002E+02  0.47000000000E+01 0. -1.
         -5    1    3    3    0  503 -0.98085755040E+02 -0.40891224336E+02 -0.58711423437E+02  0.12149908976E+03  0.47000000000E+01 0.  1.
<mgrwt>
<rscale>  0 0.13454790E+03</rscale>
<asrwt>0</asrwt>
<pdfrwt beam="1">  1        4 0.17728751E-01 0.13942188E+03</pdfrwt>
<pdfrwt beam="2">  1       -4 0.24097975E-01 0.13942188E+03</pdfrwt>
<totfact> 0.74758019E+02</totfact>
</mgrwt>
</event>
<event>
 8    1  0.6836165E-004  0.1243500E+03  0.7546771E-02  0.1236507E+00
          1   -1    0    0  501    0  0.00000000000E+00  0.00000000000E+00  0.68384060458E+03  0.68384060458E+03  0.00000000000E+00 0. -1.
         -1   -1    0    0    0  501 -0.00000000000E+00 -0.00000000000E+00 -0.22608041530E+02  0.22608041530E+02  0.00000000000E+00 0.  1.
         23    2    1    2    0    0 -0.32780969712E+02  0.76950951779E+02  0.29700654935E+03  0.32158048444E+03  0.90581878218E+02 0.  0.
         23    2    1    2    0    0  0.32780969712E+02 -0.76950951779E+02  0.36422601371E+03  0.38486816168E+03  0.92015606592E+02 0.  0.
          5    1    4    4  502    0  0.37111537199E+02 -0.33168288431E+02  0.31390318272E+03  0.31785955967E+03  0.47000000000E+01 0. -1.
         -5    1    4    4    0  502 -0.43305674871E+01 -0.43782663348E+02  0.50322830987E+02  0.67008602009E+02  0.47000000000E+01 0.  1.
          5    1    3    3  503    0 -0.47345938529E+02  0.38538948844E+01  0.97602703900E+02  0.10865021035E+03  0.47000000000E+01 0. -1.
         -5    1    3    3    0  503  0.14564968817E+02  0.73097056895E+02  0.19940384545E+03  0.21293027408E+03  0.47000000000E+01 0.  1.
<mgrwt>
<rscale>  0 0.12408483E+03</rscale>
<asrwt>0</asrwt>
<pdfrwt beam="1">  1        1 0.10520623E+00 0.12434996E+03</pdfrwt>
<pdfrwt beam="2">  1       -1 0.34781608E-02 0.12434996E+03</pdfrwt>
<totfact> 0.84380425E+03</totfact>
</mgrwt>
</event>
<event>
 8    1  0.6836165E-004  0.9556082E+02  0.7546771E-02  0.1290388E+00
          1   -1    0    0  501    0  0.00000000000E+00  0.00000000000E+00  0.40146097280E+03  0.40146097280E+03  0.00000000000E+00 0. -1.
         -1   -1    0    0    0  501 -0.00000000000E+00 -0.00000000000E+00 -0.33383988711E+02  0.33383988711E+02  0.00000000000E+00 0.  1.
         23    2    1    2    0    0  0.18542028901E+02  0.21044235831E+02  0.59618933693E+02  0.11192354750E+03  0.90475391865E+02 0.  0.
         23    2    1    2    0    0 -0.18542028901E+02 -0.21044235831E+02  0.30845805040E+03  0.32292141401E+03  0.91352088507E+02 0.  0.
          5    1    4    4  502    0 -0.63274180558E+01 -0.56831870830E+02  0.19174588400E+03  0.20014612610E+03  0.47000000000E+01 0. -1.
         -5    1    4    4    0  502 -0.12214610845E+02  0.35787634999E+02  0.11671216640E+03  0.12277528791E+03  0.47000000000E+01 0.  1.
          5    1    3    3  503    0  0.40372338145E+02 -0.12810698415E+02  0.57153111790E+02  0.71292411015E+02  0.47000000000E+01 0. -1.
         -5    1    3    3    0  503 -0.21830309244E+02  0.33854934246E+02  0.24658219034E+01  0.40631136486E+02  0.47000000000E+01 0.  1.
<mgrwt>
<rscale>  0 0.95350697E+02</rscale>
<asrwt>0</asrwt>
<pdfrwt beam="1">  1        1 0.61763223E-01 0.95560822E+02</pdfrwt>
<pdfrwt beam="2">  1       -1 0.51359985E-02 0.95560822E+02</pdfrwt>
<totfact> 0.94248428E+03</totfact>
</mgrwt>
</event>
<event>
 8    1  0.6836165E-004  0.1049252E+03  0.7546771E-02  0.1272033E+00
          2   -1    0    0  501    0  0.00000000000E+00  0.00000000000E+00  0.85442266373E+03  0.85442266373E+03  0.00000000000E+00 0. -1.
         -2   -1    0    0    0  501 -0.00000000000E+00 -0.00000000000E+00 -0.32181680755E+02  0.32181680755E+02  0.00000000000E+00 0.  1.
         23    2    1    2    0    0  0.34810369886E+02  0.27276502679E+02  0.76086993370E+03  0.76807053481E+03  0.95149992072E+02 0.  0.
         23    2    1    2    0    0 -0.34810369886E+02 -0.27276502679E+02  0.61371049278E+02  0.11853380967E+03  0.91258363431E+02 0.  0.
          5    1    3    3  502    0  0.65277791567E+02  0.36388514051E+01  0.43946543034E+03  0.44432689068E+03  0.47000000000E+01 0. -1.
         -5    1    4    4    0  503 -0.37833185903E+02  0.23989008549E+02  0.46779039649E+02  0.64939903273E+02  0.47000000000E+01 0.  1.
          5    1    4    4  503    0  0.30228160170E+01 -0.51265511228E+02  0.14592009629E+02  0.53593906399E+02  0.47000000000E+01 0. -1.
         -5    1    3    3    0  502 -0.30467421682E+02  0.23637651274E+02  0.32140450335E+03  0.32374364413E+03  0.47000000000E+01 0.  1.
<mgrwt>
<rscale>  0 0.10403495E+03</rscale>
<asrwt>0</asrwt>
<pdfrwt beam="1">  1        2 0.13144962E+00 0.10492517E+03</pdfrwt>
<pdfrwt beam="2">  1       -2 0.49510285E-02 0.10492517E+03</pdfrwt>
<totfact> 0.61923742E+03</totfact>
</mgrwt>
</event>
<event>
 8    1  0.6836165E-004  0.1006244E+03  0.7546771E-02  0.1280087E+00
         -1   -1    0    0    0  501 -0.00000000000E+00  0.00000000000E+00  0.30080610150E+03  0.30080610150E+03  0.00000000000E+00 0.  1.
          1   -1    0    0  501    0  0.00000000000E+00 -0.00000000000E+00 -0.32969827031E+02  0.32969827031E+02  0.00000000000E+00 0. -1.
         23    2    1    2    0    0 -0.36909265469E+02  0.22546757008E+02  0.13680512702E+03  0.16982609678E+03  0.90854885596E+02 0.  0.
         23    2    1    2    0    0  0.36909265469E+02 -0.22546757008E+02  0.13103114745E+03  0.16394983176E+03  0.88542281445E+02 0.  0.
          5    1    4    4  502    0  0.14817200535E+02 -0.47436030647E+02  0.11759944361E+03  0.12775541308E+03  0.47000000000E+01 0. -1.
         -5    1    4    4    0  502  0.22092064934E+02  0.24889273639E+02  0.13431703842E+02  0.36194418678E+02  0.47000000000E+01 0.  1.
          5    1    3    3  503    0  0.17644033368E+02  0.31508996452E+02  0.90520480182E+02  0.97571389778E+02  0.47000000000E+01 0. -1.
         -5    1    3    3    0  503 -0.54553298837E+02 -0.89622394439E+01  0.46284646843E+02  0.72254706997E+02  0.47000000000E+01 0.  1.
<mgrwt>
<rscale>  0 0.10009949E+03</rscale>
<asrwt>0</asrwt>
<pdfrwt beam="1">  1        1 0.50722813E-02 0.10062435E+03</pdfrwt>
<pdfrwt beam="2">  1       -1 0.46277860E-01 0.10062435E+03</pdfrwt>
<totfact> 0.71434958E+03</totfact>
</mgrwt>
</event>
<event>
 8    1  0.8827379E-004  0.9248091E+02  0.7546771E-02  0.1298752E+00
         -1   -1    0    0    0  501 -0.00000000000E+00  0.00000000000E+00  0.11000491081E+03  0.11000491081E+03  0.00000000000E+00 0.  1.
          1   -1    0    0  501    0  0.00000000000E+00 -0.00000000000E+00 -0.16362605673E+03  0.16362605673E+03  0.00000000000E+00 0. -1.
         23    2    1    2    0    0 -0.53432946424E+01 -0.67300124557E+00 -0.12757296403E+03  0.15756769666E+03  0.92323963032E+02 0.  0.
         23    2    1    2    0    0  0.53432946424E+01  0.67300124557E+00  0.73951818112E+02  0.11606327088E+03  0.89290580229E+02 0.  0.
          5    1    4    4  502    0  0.27826964603E+01 -0.43973834802E+02  0.40329578603E+02  0.59916662600E+02  0.47000000000E+01 0.  1.
         -5    1    4    4    0  502  0.25605981821E+01  0.44646836048E+02  0.33622239509E+02  0.56146608283E+02  0.47000000000E+01 0.  1.
          5    1    3    3  503    0 -0.24027103343E+02 -0.39861039444E+02 -0.82307961759E+02  0.94672565876E+02  0.47000000000E+01 0. -1.
         -5    1    3    3    0  503  0.18683808701E+02  0.39188038198E+02 -0.45265002275E+02  0.62895130784E+02  0.47000000000E+01 0.  1.
<mgrwt>
<rscale>  0 0.91714414E+02</rscale>
<asrwt>0</asrwt>
<pdfrwt beam="1">  1        1 0.25173239E-01 0.92480905E+02</pdfrwt>
<pdfrwt beam="2">  1       -1 0.16923833E-01 0.92480905E+02</pdfrwt>
<totfact> 0.46827897E+03</totfact>
</mgrwt>
</event>
<event>
 8    1  0.6836165E-004  0.9753348E+02  0.7546771E-02  0.1287065E+00
          2   -1    0    0  501    0  0.00000000000E+00  0.00000000000E+00  0.20353727945E+02  0.20353727945E+02  0.00000000000E+00 0. -1.
         -2   -1    0    0    0  501 -0.00000000000E+00 -0.00000000000E+00 -0.60961105504E+03  0.60961105504E+03  0.00000000000E+00 0.  1.
         23    2    1    2    0    0  0.14639087618E+02  0.17286615787E+02 -0.45041834028E+03  0.46029143739E+03  0.92078206426E+02 0.  0.
         23    2    1    2    0    0 -0.14639087618E+02 -0.17286615787E+02 -0.13883898682E+03  0.16967334560E+03  0.94866484997E+02 0.  0.
          5    1    3    3  502    0 -0.35439754313E+02  0.22868219534E+02 -0.16198230040E+03  0.16744935740E+03  0.47000000000E+01 0. -1.
         -5    1    4    4    0  503 -0.16541716571E+02  0.30822731518E+02 -0.10463347367E+03  0.11042609736E+03  0.47000000000E+01 0.  1.
          5    1    4    4  503    0  0.19026289529E+01 -0.48109347305E+02 -0.34205513153E+02  0.59247248249E+02  0.47000000000E+01 0. -1.
         -5    1    3    3    0  502  0.50078841931E+02 -0.55816037468E+01 -0.28843603988E+03  0.29284207999E+03  0.47000000000E+01 0.  1.
<mgrwt>
<rscale>  0 0.96848850E+02</rscale>
<asrwt>0</asrwt>
<pdfrwt beam="1">  1        2 0.31313429E-02 0.97533481E+02</pdfrwt>
<pdfrwt beam="2">  1       -2 0.93786312E-01 0.97533481E+02</pdfrwt>
<totfact> 0.27327051E+03</totfact>
</mgrwt>
</event>
<event>
 8    1  0.6836165E-004  0.1101339E+03  0.7546771E-02  0.1269047E+00
         -2   -1    0    0    0  501 -0.00000000000E+00  0.00000000000E+00  0.88750193850E+02  0.88750193850E+02  0.00000000000E+00 0.  1.
          2   -1    0    0  501    0  0.00000000000E+00 -0.00000000000E+00 -0.13094192765E+03  0.13094192765E+03  0.00000000000E+00 0. -1.
         23    2    1    2    0    0 -0.14301858536E+02  0.84244725642E+00  0.17331971208E+02  0.94502066634E+02  0.91787746989E+02 0.  0.
         23    2    1    2    0    0  0.14301858536E+02 -0.84244725642E+00 -0.59523705012E+02  0.12519005487E+03  0.10919810211E+03 0.  0.
          5    1    4    4  502    0 -0.89669018738E+01 -0.41646124252E+02 -0.64798096079E+02  0.77689692044E+02  0.47000000000E+01 0. -1.
         -5    1    3    3    0  503  0.28328789602E+02 -0.18508882531E+02 -0.15102878161E+02  0.37353527031E+02  0.47000000000E+01 0.  1.
          5    1    3    3  503    0 -0.42630648139E+02  0.19351329788E+02  0.32434849368E+02  0.57148539604E+02  0.47000000000E+01 0. -1.
         -5    1    4    4    0  502  0.23268760410E+02  0.40803676996E+02  0.52743910674E+01  0.47500362825E+02  0.47000000000E+01 0.  1.
<mgrwt>
<rscale>  0 0.10554646E+03</rscale>
<asrwt>0</asrwt>
<pdfrwt beam="1">  1        2 0.20144912E-01 0.11013391E+03</pdfrwt>
<pdfrwt beam="2">  1       -2 0.13653876E-01 0.11013391E+03</pdfrwt>
<totfact> 0.10176851E+04</totfact>
</mgrwt>
</event>
<event>
 8    1  0.6836165E-004  0.1935552E+03  0.7546771E-02  0.1155567E+00
          2   -1    0    0  501    0  0.00000000000E+00  0.00000000000E+00  0.20054769607E+04  0.20054769607E+04  0.00000000000E+00 0. -1.
         -2   -1    0    0    0  501 -0.00000000000E+00 -0.00000000000E+00 -0.18637658139E+02  0.18637658139E+02  0.00000000000E+00 0.  1.
         23    2    1    2    0    0  0.16447752119E+03 -0.45669826503E+02  0.92537348321E+03  0.94514599396E+03  0.88579221179E+02 0.  0.
         23    2    1    2    0    0 -0.16447752119E+03  0.45669826503E+02  0.10614658194E+04  0.10789686249E+04  0.91241546548E+02 0.  0.
          5    1    3    3  502    0  0.14879285815E+03 -0.62908995793E+01  0.75043999599E+03  0.76508899328E+03  0.47000000000E+01 0. -1.
         -5    1    3    3    0  502  0.15684663035E+02 -0.39378926924E+02  0.17493348722E+03  0.18005700067E+03  0.47000000000E+01 0.  1.
          5    1    4    4  503    0 -0.15541271109E+03  0.63929395027E+02  0.10001872871E+04  0.10142173227E+04  0.47000000000E+01 0. -1.
         -5    1    4    4    0  503 -0.90648100999E+01 -0.18259568524E+02  0.61278532221E+02  0.64751302196E+02  0.47000000000E+01 0.  1.
<mgrwt>
<rscale>  0 0.19324426E+03</rscale>
<asrwt>0</asrwt>
<pdfrwt beam="1">  1        2 0.30853475E+00 0.19355518E+03</pdfrwt>
<pdfrwt beam="2">  1       -2 0.28673336E-02 0.19355518E+03</pdfrwt>
<totfact> 0.33458641E+03</totfact>
</mgrwt>
</event>
<event>
 8    1  0.6836165E-004  0.1023590E+03  0.7546771E-02  0.1276802E+00
         -3   -1    0    0    0  501 -0.00000000000E+00  0.00000000000E+00  0.36097971743E+02  0.36097971743E+02  0.00000000000E+00 0.  1.
          3   -1    0    0  501    0  0.00000000000E+00 -0.00000000000E+00 -0.51897038588E+03  0.51897038588E+03  0.00000000000E+00 0. -1.
         23    2    1    2    0    0 -0.68903906468E+01 -0.47208326137E+02 -0.42694929906E+03  0.43842893861E+03  0.87510723377E+02 0.  0.
         23    2    1    2    0    0  0.68903906468E+01  0.47208326137E+02 -0.55923115077E+02  0.11663941901E+03  0.90560784710E+02 0.  0.
          5    1    4    4  502    0 -0.35356727306E+02  0.26440265663E+02 -0.13570633141E+01  0.44419786526E+02  0.47000000000E+01 0. -1.
         -5    1    4    4    0  502  0.42247117953E+02  0.20768060474E+02 -0.54566051763E+02  0.72219632485E+02  0.47000000000E+01 0.  1.
          5    1    3    3  503    0 -0.31986546518E+02 -0.99611513344E+01 -0.32707567929E+03  0.32882054935E+03  0.47000000000E+01 0. -1.
         -5    1    3    3    0  503  0.25096155871E+02 -0.37247174802E+02 -0.99873619773E+02  0.10960838926E+03  0.47000000000E+01 0.  1.
<mgrwt>
<rscale>  0 0.10168016E+03</rscale>
<asrwt>0</asrwt>
<pdfrwt beam="1">  1        3 0.79841594E-01 0.10235897E+03</pdfrwt>
<pdfrwt beam="2">  1       -3 0.55535344E-02 0.10235897E+03</pdfrwt>
<totfact> 0.63963717E+02</totfact>
</mgrwt>
</event>
<event>
 8    1  0.6836165E-004  0.1297338E+03  0.7546771E-02  0.1242289E+00
          3   -1    0    0  501    0  0.00000000000E+00  0.00000000000E+00  0.46762081691E+03  0.46762081691E+03  0.00000000000E+00 0. -1.
         -3   -1    0    0    0  501 -0.00000000000E+00 -0.00000000000E+00 -0.37515490333E+02  0.37515490333E+02  0.00000000000E+00 0.  1.
         23    2    1    2    0    0 -0.28782985557E+02  0.14569769090E+02  0.36838448342E+03  0.39056111807E+03  0.12565874777E+03 0.  0.
         23    2    1    2    0    0  0.28782985557E+02 -0.14569769090E+02  0.61720843151E+02  0.11457518917E+03  0.90979520032E+02 0.  0.
          5    1    4    4  502    0  0.46753352707E+02  0.35641882748E+01  0.72498440996E+02  0.86467874811E+02  0.47000000000E+01 0. -1.
         -5    1    4    4    0  502 -0.17970367149E+02 -0.18133957365E+02 -0.10777597845E+02  0.28107314360E+02  0.47000000000E+01 0.  1.
          5    1    3    3  503    0  0.48357897283E+02 -0.77527062406E+01  0.14693395856E+03  0.15495247291E+03  0.47000000000E+01 0. -1.
         -5    1    3    3    0  503 -0.77140882840E+02  0.22322475331E+02  0.22145052486E+03  0.23560864515E+03  0.47000000000E+01 0.  1.
<mgrwt>
<rscale>  0 0.12049118E+03</rscale>
<asrwt>0</asrwt>
<pdfrwt beam="1">  1        3 0.71941660E-01 0.12973380E+03</pdfrwt>
<pdfrwt beam="2">  1       -3 0.57716142E-02 0.12973380E+03</pdfrwt>
<totfact> 0.78133722E+02</totfact>
</mgrwt>
</event>
<event>
 8    1  0.6836165E-004  0.1094045E+03  0.7546771E-02  0.1262085E+00
          1   -1    0    0  501    0  0.00000000000E+00  0.00000000000E+00  0.68265159363E+03  0.68265159363E+03  0.00000000000E+00 0. -1.
         -1   -1    0    0    0  501 -0.00000000000E+00 -0.00000000000E+00 -0.17315331175E+03  0.17315331175E+03  0.00000000000E+00 0.  1.
         23    2    1    2    0    0 -0.59123816649E+02 -0.38314031759E+01 -0.15098945278E+03  0.18645952210E+03  0.91973002478E+02 0.  0.
         23    2    1    2    0    0  0.59123816649E+02  0.38314031759E+01  0.66048773465E+03  0.66934538328E+03  0.90933432514E+02 0.  0.
          5    1    3    3  502    0 -0.30238881259E+02 -0.41254390143E+02 -0.38014279073E+02  0.63902191350E+02  0.47000000000E+01 0. -1.
         -5    1    3    3    0  502 -0.28884935389E+02  0.37422986967E+02 -0.11297517371E+03  0.12255733075E+03  0.47000000000E+01 0.  1.
          5    1    4    4  503    0  0.29235823462E+02  0.44398983539E+02  0.43421889641E+03  0.43748616334E+03  0.47000000000E+01 0. -1.
         -5    1    4    4    0  503  0.29887993186E+02 -0.40567580363E+02  0.22626883825E+03  0.23185921995E+03  0.47000000000E+01 0.  1.
<mgrwt>
<rscale>  0 0.10918570E+03</rscale>
<asrwt>0</asrwt>
<pdfrwt beam="1">  1        1 0.10502332E+00 0.10940447E+03</pdfrwt>
<pdfrwt beam="2">  1       -1 0.26638972E-01 0.10940447E+03</pdfrwt>
<totfact> 0.37568945E+02</totfact>
</mgrwt>
</event>
<event>
 8    1  0.6836165E-004  0.1058530E+03  0.7546771E-02  0.1269959E+00
          2   -1    0    0  501    0  0.00000000000E+00  0.00000000000E+00  0.12350307189E+03  0.12350307189E+03  0.00000000000E+00 0. -1.
         -2   -1    0    0    0  501 -0.00000000000E+00 -0.00000000000E+00 -0.98105807228E+02  0.98105807228E+02  0.00000000000E+00 0.  1.
         23    2    1    2    0    0 -0.11653781590E+02 -0.47268190859E+02  0.47863907823E+02  0.11339796309E+03  0.90543093989E+02 0.  0.
         23    2    1    2    0    0  0.11653781590E+02  0.47268190859E+02 -0.22466643157E+02  0.10821091603E+03  0.93993402964E+02 0.  0.
          5    1    3    3  502    0  0.38103696082E+02 -0.31719313649E+02  0.16935893961E+02  0.52601530565E+02  0.47000000000E+01 0. -1.
         -5    1    3    3    0  502 -0.49757477672E+02 -0.15548877210E+02  0.30928013862E+02  0.60796432528E+02  0.47000000000E+01 0.  1.
          5    1    4    4  503    0  0.39588639214E+02  0.98440819504E+01  0.19307952419E+02  0.45376792867E+02  0.47000000000E+01 0. -1.
         -5    1    4    4    0  503 -0.27934857624E+02  0.37424108909E+02 -0.41774595576E+02  0.62834123163E+02  0.47000000000E+01 0.  1.
<mgrwt>
<rscale>  0 0.10508171E+03</rscale>
<asrwt>0</asrwt>
<pdfrwt beam="1">  1        2 0.19000473E-01 0.10585297E+03</pdfrwt>
<pdfrwt beam="2">  1       -2 0.15093201E-01 0.10585297E+03</pdfrwt>
<totfact> 0.92108636E+03</totfact>
</mgrwt>
</event>
<event>
 8    1  0.6836165E-004  0.9441586E+02  0.7546771E-02  0.1293352E+00
          1   -1    0    0  501    0  0.00000000000E+00  0.00000000000E+00  0.67577926092E+03  0.67577926092E+03  0.00000000000E+00 0. -1.
         -1   -1    0    0    0  501 -0.00000000000E+00 -0.00000000000E+00 -0.14386620558E+02  0.14386620558E+02  0.00000000000E+00 0.  1.
         23    2    1    2    0    0  0.14480354452E+02  0.15047334835E+02  0.44083494245E+03  0.45083234328E+03  0.92077425631E+02 0.  0.
         23    2    1    2    0    0 -0.14480354452E+02 -0.15047334835E+02  0.22055769791E+03  0.23933353820E+03  0.90546901921E+02 0.  0.
          5    1    3    3  502    0  0.13356531437E+02  0.53523081002E+02  0.27590560249E+03  0.28140559450E+03  0.47000000000E+01 0. -1.
         -5    1    3    3    0  502  0.11238230142E+01 -0.38475746167E+02  0.16492933996E+03  0.16942674878E+03  0.47000000000E+01 0.  1.
          5    1    4    4  503    0 -0.48293274199E+01  0.29505601465E+02  0.16286975236E+03  0.16565792814E+03  0.47000000000E+01 0. -1.
         -5    1    4    4    0  503 -0.96510270318E+01 -0.44552936300E+02  0.57687945552E+02  0.73675610060E+02  0.47000000000E+01 0.  1.
<mgrwt>
<rscale>  0 0.94040632E+02</rscale>
<asrwt>0</asrwt>
<pdfrwt beam="1">  1        1 0.10396602E+00 0.94415863E+02</pdfrwt>
<pdfrwt beam="2">  1       -1 0.22133268E-02 0.94415863E+02</pdfrwt>
<totfact> 0.16144036E+04</totfact>
</mgrwt>
</event>
<event>
 8    1  0.6836165E-004  0.9641451E+02  0.7546771E-02  0.1288351E+00
          3   -1    0    0  501    0  0.00000000000E+00  0.00000000000E+00  0.51185494018E+03  0.51185494018E+03  0.00000000000E+00 0. -1.
         -3   -1    0    0    0  501 -0.00000000000E+00 -0.00000000000E+00 -0.20767573394E+02  0.20767573394E+02  0.00000000000E+00 0.  1.
         23    2    1    2    0    0  0.13865388534E+02  0.26349496855E+02  0.34123457562E+03  0.35443268165E+03  0.91076589945E+02 0.  0.
         23    2    1    2    0    0 -0.13865388534E+02 -0.26349496855E+02  0.14985279117E+03  0.17818983193E+03  0.91701756792E+02 0.  0.
          5    1    4    4  502    0  0.24112947503E+02 -0.87795690859E+00  0.12197453273E+03  0.12442701347E+03  0.47000000000E+01 0. -1.
         -5    1    4    4    0  502 -0.37978336037E+02 -0.25471539946E+02  0.27878258434E+02  0.53762818459E+02  0.47000000000E+01 0.  1.
          5    1    3    3  503    0  0.30431438552E+02 -0.22862471932E+02  0.20511386930E+03  0.20866852771E+03  0.47000000000E+01 0. -1.
         -5    1    3    3    0  503 -0.16566050017E+02  0.49211968786E+02  0.13612070632E+03  0.14576415394E+03  0.47000000000E+01 0.  1.
<mgrwt>
<rscale>  0 0.96265559E+02</rscale>
<asrwt>0</asrwt>
<pdfrwt beam="1">  1        3 0.78746905E-01 0.96414507E+02</pdfrwt>
<pdfrwt beam="2">  1       -3 0.31950117E-02 0.96414507E+02</pdfrwt>
<totfact> 0.15424307E+03</totfact>
</mgrwt>
</event>
<event>
 8    1  0.6836165E-004  0.1223926E+03  0.7546771E-02  0.1240226E+00
         -2   -1    0    0    0  501 -0.00000000000E+00  0.00000000000E+00  0.34853883482E+02  0.34853883482E+02  0.00000000000E+00 0.  1.
          2   -1    0    0  501    0  0.00000000000E+00 -0.00000000000E+00 -0.46036023019E+03  0.46036023019E+03  0.00000000000E+00 0. -1.
         23    2    1    2    0    0 -0.28646419702E+02 -0.72118865860E+02 -0.28314294151E+03  0.30747151693E+03  0.91362247243E+02 0.  0.
         23    2    1    2    0    0  0.28646419702E+02  0.72118865860E+02 -0.14236340520E+03  0.18774259675E+03  0.94647743332E+02 0.  0.
          5    1    3    3  502    0 -0.51086052227E+02 -0.35966516030E+02 -0.90125060256E+02  0.10976334312E+03  0.47000000000E+01 0. -1.
         -5    1    4    4    0  503  0.48979871329E+02  0.17923185944E+02 -0.27774120764E+02  0.59276978449E+02  0.47000000000E+01 0.  1.
          5    1    4    4  503    0 -0.20333451627E+02  0.54195679915E+02 -0.11458928444E+03  0.12846561830E+03  0.47000000000E+01 0. -1.
         -5    1    3    3    0  502  0.22439632525E+02 -0.36152349829E+02 -0.19301788125E+03  0.19770817381E+03  0.47000000000E+01 0.  1.
<mgrwt>
<rscale>  0 0.12175699E+03</rscale>
<asrwt>0</asrwt>
<pdfrwt beam="1">  1        2 0.70824645E-01 0.12239258E+03</pdfrwt>
<pdfrwt beam="2">  1       -2 0.53621364E-02 0.12239258E+03</pdfrwt>
<totfact> 0.11316230E+04</totfact>
</mgrwt>
</event>
<event>
 8    1  0.6836165E-004  0.1047126E+03  0.7546771E-02  0.1273248E+00
         -1   -1    0    0    0  501 -0.00000000000E+00  0.00000000000E+00  0.68736910282E+02  0.68736910282E+02  0.00000000000E+00 0.  1.
          1   -1    0    0  501    0  0.00000000000E+00 -0.00000000000E+00 -0.15503640389E+03  0.15503640389E+03  0.00000000000E+00 0. -1.
         23    2    1    2    0    0  0.45039085638E+02 -0.33079916438E+02 -0.60037356846E+02  0.12070302930E+03  0.88554711662E+02 0.  0.
         23    2    1    2    0    0 -0.45039085638E+02  0.33079916438E+02 -0.26262136767E+02  0.10307028488E+03  0.82528684050E+02 0.  0.
          5    1    3    3  502    0  0.61844337605E+02  0.55668382438E+01 -0.34139681008E+02  0.71016333341E+02  0.47000000000E+01 0. -1.
         -5    1    4    4    0  503 -0.39664878406E+02 -0.19917554314E+01  0.19891045035E+02  0.44665572214E+02  0.47000000000E+01 0.  1.
          5    1    4    4  503    0 -0.53742072320E+01  0.35071671870E+02 -0.46153181802E+02  0.58404712666E+02  0.47000000000E+01 0. -1.
         -5    1    3    3    0  502 -0.16805251967E+02 -0.38646754682E+02 -0.25897675838E+02  0.49686695955E+02  0.47000000000E+01 0.  1.
<mgrwt>
<rscale>  0 0.10342813E+03</rscale>
<asrwt>0</asrwt>
<pdfrwt beam="1">  1        1 0.23851754E-01 0.10471264E+03</pdfrwt>
<pdfrwt beam="2">  1       -1 0.10574909E-01 0.10471264E+03</pdfrwt>
<totfact> 0.10440461E+04</totfact>
</mgrwt>
</event>
<event>
 8    1  0.6836165E-004  0.1039806E+03  0.7546771E-02  0.1273022E+00
          1   -1    0    0  501    0  0.00000000000E+00  0.00000000000E+00  0.88775595718E+02  0.88775595718E+02  0.00000000000E+00 0. -1.
         -1   -1    0    0    0  501 -0.00000000000E+00 -0.00000000000E+00 -0.26035678464E+03  0.26035678464E+03  0.00000000000E+00 0.  1.
         23    2    1    2    0    0  0.48461896997E+02  0.39194607578E+01 -0.21373947821E+03  0.23693039360E+03  0.89930691271E+02 0.  0.
         23    2    1    2    0    0 -0.48461896997E+02 -0.39194607578E+01  0.42158289286E+02  0.11220198676E+03  0.91913257175E+02 0.  0.
          5    1    4    4  502    0 -0.46433121175E+02  0.24855919999E+02  0.58386798461E+02  0.78771566796E+02  0.47000000000E+01 0. -1.
         -5    1    4    4    0  502 -0.20287758219E+01 -0.28775380756E+02 -0.16228509175E+02  0.33430419965E+02  0.47000000000E+01 0.  1.
          5    1    3    3  503    0 -0.13268974522E+02 -0.28568826979E+02 -0.77759621041E+02  0.84029115337E+02  0.47000000000E+01 0. -1.
         -5    1    3    3    0  503  0.61730871519E+02  0.32488287737E+02 -0.13597985717E+03  0.15290127826E+03  0.47000000000E+01 0.  1.
<mgrwt>
<rscale>  0 0.10354074E+03</rscale>
<asrwt>0</asrwt>
<pdfrwt beam="1">  1        1 0.13657784E-01 0.10398060E+03</pdfrwt>
<pdfrwt beam="2">  1       -1 0.40054890E-01 0.10398060E+03</pdfrwt>
<totfact> 0.24840542E+03</totfact>
</mgrwt>
</event>
<event>
 8    1  0.6836165E-004  0.1361526E+03  0.7546771E-02  0.1220802E+00
          1   -1    0    0  501    0  0.00000000000E+00  0.00000000000E+00  0.87164443668E+03  0.87164443668E+03  0.00000000000E+00 0. -1.
         -1   -1    0    0    0  501 -0.00000000000E+00 -0.00000000000E+00 -0.20904086695E+02  0.20904086695E+02  0.00000000000E+00 0.  1.
         23    2    1    2    0    0  0.17841121176E+02  0.99190253230E+02  0.36018172965E+03  0.38505638431E+03  0.91545228088E+02 0.  0.
         23    2    1    2    0    0 -0.17841121176E+02 -0.99190253230E+02  0.49055862033E+03  0.50749213906E+03  0.82118812003E+02 0.  0.
          5    1    3    3  502    0  0.31368715257E+02  0.13871158345E+01  0.14233796031E+03  0.14583588493E+03  0.47000000000E+01 0. -1.
         -5    1    4    4    0  503  0.30213399903E+02 -0.41879235083E+02  0.25793922338E+03  0.26309970130E+03  0.47000000000E+01 0.  1.
          5    1    4    4  503    0 -0.48054521079E+02 -0.57311018148E+02  0.23261939695E+03  0.24439243776E+03  0.47000000000E+01 0. -1.
         -5    1    3    3    0  502 -0.13527594081E+02  0.97803137396E+02  0.21784376934E+03  0.23922049938E+03  0.47000000000E+01 0.  1.
<mgrwt>
<rscale>  0 0.13458821E+03</rscale>
<asrwt>0</asrwt>
<pdfrwt beam="1">  1        1 0.13409912E+00 0.13615264E+03</pdfrwt>
<pdfrwt beam="2">  1       -1 0.32160140E-02 0.13615264E+03</pdfrwt>
<totfact> 0.66327534E+03</totfact>
</mgrwt>
</event>
<event>
 8    1  0.6836165E-004  0.1124453E+03  0.7546771E-02  0.1265870E+00
          2   -1    0    0  501    0  0.00000000000E+00  0.00000000000E+00  0.24852579944E+03  0.24852579944E+03  0.00000000000E+00 0. -1.
         -2   -1    0    0    0  501 -0.00000000000E+00 -0.00000000000E+00 -0.45042981515E+02  0.45042981515E+02  0.00000000000E+00 0.  1.
         23    2    1    2    0    0  0.19238194314E+02 -0.49470653331E+01  0.14633835328E+03  0.18455039924E+03  0.11067680265E+03 0.  0.
         23    2    1    2    0    0 -0.19238194314E+02  0.49470653331E+01  0.57144464654E+02  0.10901838172E+03  0.90691433642E+02 0.  0.
          5    1    3    3  502    0  0.56917558089E+02  0.26431751732E+02  0.75880760860E+02  0.98581062011E+02  0.47000000000E+01 0. -1.
         -5    1    4    4    0  503  0.54933506286E+01 -0.40354242231E+02  0.26320771124E+02  0.48718731097E+02  0.47000000000E+01 0.  1.
          5    1    4    4  503    0 -0.24731544942E+02  0.45301307564E+02  0.30823693530E+02  0.60299650621E+02  0.47000000000E+01 0. -1.
         -5    1    3    3    0  502 -0.37679363776E+02 -0.31378817065E+02  0.70457592416E+02  0.85969337231E+02  0.47000000000E+01 0.  1.
<mgrwt>
<rscale>  0 0.10718678E+03</rscale>
<asrwt>0</asrwt>
<pdfrwt beam="1">  1        2 0.38234738E-01 0.11244526E+03</pdfrwt>
<pdfrwt beam="2">  1       -2 0.69296896E-02 0.11244526E+03</pdfrwt>
<totfact> 0.14654860E+04</totfact>
</mgrwt>
</event>
<event>
 8    1  0.6836165E-004  0.1029385E+03  0.7546771E-02  0.1276760E+00
          1   -1    0    0  501    0  0.00000000000E+00  0.00000000000E+00  0.85156201686E+03  0.85156201686E+03  0.00000000000E+00 0. -1.
         -1   -1    0    0    0  501 -0.00000000000E+00 -0.00000000000E+00 -0.31182141082E+02  0.31182141082E+02  0.00000000000E+00 0.  1.
         23    2    1    2    0    0  0.39880839557E+02  0.20629066633E+02  0.75379358284E+03  0.76014695236E+03  0.87192797269E+02 0.  0.
         23    2    1    2    0    0 -0.39880839557E+02 -0.20629066633E+02  0.66586292932E+02  0.12259720558E+03  0.92629912312E+02 0.  0.
          5    1    4    4  502    0  0.14954511167E+02 -0.17841577986E+02 -0.12004581347E+02  0.26611262326E+02  0.47000000000E+01 0. -1.
         -5    1    3    3    0  503  0.67449098158E+02  0.14448707011E+02  0.55887010178E+03  0.56313055915E+03  0.47000000000E+01 0. -1.
          5    1    3    3  503    0 -0.27568258601E+02  0.61803596222E+01  0.19492348106E+03  0.19701639322E+03  0.47000000000E+01 0.  1.
         -5    1    4    4    0  502 -0.54835350724E+02 -0.27874886474E+01  0.78590874279E+02  0.95985943251E+02  0.47000000000E+01 0.  1.
<mgrwt>
<rscale>  0 0.10170038E+03</rscale>
<asrwt>0</asrwt>
<pdfrwt beam="1">  1        1 0.13100952E+00 0.10293853E+03</pdfrwt>
<pdfrwt beam="2">  1       -1 0.47972531E-02 0.10293853E+03</pdfrwt>
<totfact> 0.37831257E+03</totfact>
</mgrwt>
</event>
<event>
 8    1  0.6836165E-004  0.1063681E+03  0.7546771E-02  0.1268088E+00
         -1   -1    0    0    0  501 -0.00000000000E+00  0.00000000000E+00  0.46153314015E+02  0.46153314015E+02  0.00000000000E+00 0.  1.
          1   -1    0    0  501    0  0.00000000000E+00 -0.00000000000E+00 -0.40905984575E+03  0.40905984575E+03  0.00000000000E+00 0. -1.
         23    2    1    2    0    0  0.49969609327E+02  0.24124395508E+02 -0.35387380850E+02  0.11085437810E+03  0.89204697775E+02 0.  0.
         23    2    1    2    0    0 -0.49969609327E+02 -0.24124395508E+02 -0.32751915089E+03  0.34435878167E+03  0.90748157006E+02 0.  0.
          5    1    3    3  502    0  0.31971980161E+01  0.50723370581E+02 -0.16860252148E+02  0.53753516171E+02  0.47000000000E+01 0. -1.
         -5    1    4    4    0  503 -0.44593726276E+02 -0.53847172715E+02 -0.27305173464E+03  0.28189973079E+03  0.47000000000E+01 0.  1.
          5    1    4    4  503    0 -0.53758830514E+01  0.29722777207E+02 -0.54467416252E+02  0.62459050879E+02  0.47000000000E+01 0. -1.
         -5    1    3    3    0  502  0.46772411311E+02 -0.26598975074E+02 -0.18527128702E+02  0.57100861927E+02  0.47000000000E+01 0.  1.
<mgrwt>
<rscale>  0 0.10603815E+03</rscale>
<asrwt>0</asrwt>
<pdfrwt beam="1">  1        1 0.62932282E-01 0.10636812E+03</pdfrwt>
<pdfrwt beam="2">  1       -1 0.71005100E-02 0.10636812E+03</pdfrwt>
<totfact> 0.57482055E+03</totfact>
</mgrwt>
</event>
<event>
 8    1  0.6836165E-004  0.9347911E+02  0.7546771E-02  0.1295352E+00
          1   -1    0    0  501    0  0.00000000000E+00  0.00000000000E+00  0.18183521185E+03  0.18183521185E+03  0.00000000000E+00 0. -1.
         -1   -1    0    0    0  501 -0.00000000000E+00 -0.00000000000E+00 -0.12980870103E+03  0.12980870103E+03  0.00000000000E+00 0.  1.
         23    2    1    2    0    0 -0.16631532740E+02 -0.36601854153E+01 -0.98184302105E+02  0.13472124105E+03  0.90662289692E+02 0.  0.
         23    2    1    2    0    0  0.16631532740E+02  0.36601854153E+01  0.15021081293E+03  0.17692267183E+03  0.91914844553E+02 0.  0.
          5    1    3    3  502    0 -0.39125560428E+02 -0.35374167828E+02 -0.52907655144E+02  0.74856203492E+02  0.47000000000E+01 0. -1.
         -5    1    4    4    0  503 -0.22232252378E+02  0.35882034025E+02  0.75621910646E+02  0.86732674243E+02  0.47000000000E+01 0.  1.
          5    1    4    4  503    0  0.38863785118E+02 -0.32221848610E+02  0.74588902281E+02  0.90189997589E+02  0.47000000000E+01 0. -1.
         -5    1    3    3    0  502  0.22494027688E+02  0.31713982413E+02 -0.45276646961E+02  0.59865037561E+02  0.47000000000E+01 0.  1.
<mgrwt>
<rscale>  0 0.93169747E+02</rscale>
<asrwt>0</asrwt>
<pdfrwt beam="1">  1        1 0.27974648E-01 0.93479107E+02</pdfrwt>
<pdfrwt beam="2">  1       -1 0.19970569E-01 0.93479107E+02</pdfrwt>
<totfact> 0.31676218E+03</totfact>
</mgrwt>
</event>
<event>
 8    1  0.6836165E-004  0.1203310E+03  0.7546771E-02  0.1247975E+00
          1   -1    0    0  501    0  0.00000000000E+00  0.00000000000E+00  0.67883386824E+03  0.67883386824E+03  0.00000000000E+00 0. -1.
         -1   -1    0    0    0  501 -0.00000000000E+00 -0.00000000000E+00 -0.42197074900E+02  0.42197074900E+02  0.00000000000E+00 0.  1.
         23    2    1    2    0    0 -0.55073778663E+02  0.22244960034E+02  0.59228649351E+03  0.60438632432E+03  0.10464979352E+03 0.  0.
         23    2    1    2    0    0  0.55073778663E+02 -0.22244960034E+02  0.44350299827E+02  0.11664461882E+03  0.90061416053E+02 0.  0.
          5    1    3    3  502    0  0.20164183868E+01  0.52013369428E+02  0.33885329359E+03  0.34286017722E+03  0.47000000000E+01 0. -1.
         -5    1    4    4    0  503  0.61787399887E+02 -0.46508521268E+02  0.17283695058E+02  0.79382248962E+02  0.47000000000E+01 0.  1.
          5    1    4    4  503    0 -0.67136212239E+01  0.24263561234E+02  0.27066604769E+02  0.37262369857E+02  0.47000000000E+01 0. -1.
         -5    1    3    3    0  502 -0.57090197050E+02 -0.29768409393E+02  0.25343319992E+03  0.26152614710E+03  0.47000000000E+01 0.  1.
<mgrwt>
<rscale>  0 0.11709074E+03</rscale>
<asrwt>0</asrwt>
<pdfrwt beam="1">  1        1 0.10443597E+00 0.12033095E+03</pdfrwt>
<pdfrwt beam="2">  1       -1 0.64918582E-02 0.12033095E+03</pdfrwt>
<totfact> 0.33943804E+03</totfact>
</mgrwt>
</event>
<event>
 8    1  0.6836165E-004  0.9908619E+02  0.7546771E-02  0.1282734E+00
         -1   -1    0    0    0  501 -0.00000000000E+00  0.00000000000E+00  0.37665622395E+03  0.37665622395E+03  0.00000000000E+00 0.  1.
          1   -1    0    0  501    0  0.00000000000E+00 -0.00000000000E+00 -0.57054091071E+02  0.57054091071E+02  0.00000000000E+00 0. -1.
         23    2    1    2    0    0  0.29198423391E+02 -0.28406662132E+02 -0.99737052536E+00  0.98147929167E+02  0.89289052352E+02 0.  0.
         23    2    1    2    0    0 -0.29198423391E+02  0.28406662132E+02  0.32059950341E+03  0.33556238586E+03  0.90324895988E+02 0.  0.
          5    1    4    4  502    0  0.61225248879E+01 -0.29295913808E+02  0.78486914616E+02  0.84130979090E+02  0.47000000000E+01 0. -1.
         -5    1    3    3    0  503 -0.18915991638E+02 -0.42737666333E+02 -0.65229314256E+01  0.47423216863E+02  0.47000000000E+01 0.  1.
          5    1    3    3  503    0  0.48114415029E+02  0.14331004202E+02  0.55255609002E+01  0.50724712304E+02  0.47000000000E+01 0. -1.
         -5    1    4    4    0  502 -0.35320948279E+02  0.57702575939E+02  0.24211258879E+03  0.25143140677E+03  0.47000000000E+01 0.  1.
<mgrwt>
<rscale>  0 0.98849512E+02</rscale>
<asrwt>0</asrwt>
<pdfrwt beam="1">  1        1 0.87775527E-02 0.99086191E+02</pdfrwt>
<pdfrwt beam="2">  1       -1 0.57947110E-01 0.99086191E+02</pdfrwt>
<totfact> 0.22714041E+03</totfact>
</mgrwt>
</event>
<event>
 8    1  0.6836165E-004  0.9939019E+02  0.7546771E-02  0.1281711E+00
          1   -1    0    0  501    0  0.00000000000E+00  0.00000000000E+00  0.96945189338E+02  0.96945189338E+02  0.00000000000E+00 0. -1.
         -1   -1    0    0    0  501 -0.00000000000E+00 -0.00000000000E+00 -0.15488395773E+03  0.15488395773E+03  0.00000000000E+00 0.  1.
         23    2    1    2    0    0 -0.12065472988E+02  0.35662461442E+02 -0.10280988385E+03  0.14299748683E+03  0.91983815022E+02 0.  0.
         23    2    1    2    0    0  0.12065472988E+02 -0.35662461442E+02  0.44871115458E+02  0.10883166025E+03  0.91725277186E+02 0.  0.
          5    1    4    4  502    0  0.51111275207E+02 -0.13269582595E+02  0.16961904959E+02  0.55661840567E+02  0.47000000000E+01 0. -1.
         -5    1    3    3    0  503 -0.54988930611E+01 -0.27864824231E+02 -0.58267593387E+02  0.64991450926E+02  0.47000000000E+01 0.  1.
          5    1    3    3  503    0 -0.65665799271E+01  0.63527285672E+02 -0.44542290467E+02  0.78006035900E+02  0.47000000000E+01 0. -1.
         -5    1    4    4    0  502 -0.39045802218E+02 -0.22392878847E+02  0.27909210500E+02  0.53169819678E+02  0.47000000000E+01 0.  1.
<mgrwt>
<rscale>  0 0.99330326E+02</rscale>
<asrwt>0</asrwt>
<pdfrwt beam="1">  1        1 0.14914645E-01 0.99390186E+02</pdfrwt>
<pdfrwt beam="2">  1       -1 0.23828301E-01 0.99390186E+02</pdfrwt>
<totfact> 0.52808923E+03</totfact>
</mgrwt>
</event>
<event>
 8    1  0.6836165E-004  0.1140247E+03  0.7546771E-02  0.1253878E+00
         -1   -1    0    0    0  501 -0.00000000000E+00  0.00000000000E+00  0.14269273448E+03  0.14269273448E+03  0.00000000000E+00 0.  1.
          1   -1    0    0  501    0  0.00000000000E+00 -0.00000000000E+00 -0.11475688174E+03  0.11475688174E+03  0.00000000000E+00 0. -1.
         23    2    1    2    0    0 -0.64106795714E+02  0.28546090689E+02  0.73610370091E+02  0.13461724903E+03  0.88197259608E+02 0.  0.
         23    2    1    2    0    0  0.64106795714E+02 -0.28546090689E+02 -0.45674517350E+02  0.12283236719E+03  0.89872511613E+02 0.  0.
          5    1    4    4  502    0  0.12791260868E+02  0.31412070953E+02 -0.75605432858E+01  0.35065458373E+02  0.47000000000E+01 0. -1.
         -5    1    4    4    0  502  0.51315534845E+02 -0.59958161642E+02 -0.38113974064E+02  0.87766908815E+02  0.47000000000E+01 0.  1.
          5    1    3    3  503    0 -0.69587479431E+02  0.50166053395E+02  0.41957904012E+02  0.95611745701E+02  0.47000000000E+01 0. -1.
         -5    1    3    3    0  503  0.54806837174E+01 -0.21619962707E+02  0.31652466079E+02  0.39005503334E+02  0.47000000000E+01 0.  1.
<mgrwt>
<rscale>  0 0.11369433E+03</rscale>
<asrwt>0</asrwt>
<pdfrwt beam="1">  1        1 0.17654905E-01 0.11402469E+03</pdfrwt>
<pdfrwt beam="2">  1       -1 0.21952728E-01 0.11402469E+03</pdfrwt>
<totfact> 0.49069862E+03</totfact>
</mgrwt>
</event>
<event>
 8    1  0.6836165E-004  0.1360667E+03  0.7546771E-02  0.1219177E+00
         -2   -1    0    0    0  501 -0.00000000000E+00  0.00000000000E+00  0.42555768455E+02  0.42555768455E+02  0.00000000000E+00 0.  1.
          2   -1    0    0  501    0  0.00000000000E+00 -0.00000000000E+00 -0.56881025498E+03  0.56881025498E+03  0.00000000000E+00 0. -1.
         23    2    1    2    0    0  0.77860282831E+02 -0.62049124470E+02 -0.41267926736E+03  0.43412756398E+03  0.90830868131E+02 0.  0.
         23    2    1    2    0    0 -0.77860282831E+02  0.62049124470E+02 -0.11357521916E+03  0.17723845946E+03  0.92746016696E+02 0.  0.
          5    1    3    3  502    0 -0.18958183408E+02 -0.84731954952E+01 -0.10461323775E+03  0.10675779724E+03  0.47000000000E+01 0. -1.
         -5    1    3    3    0  502  0.96818466239E+02 -0.53575928975E+02 -0.30806602961E+03  0.32736976674E+03  0.47000000000E+01 0.  1.
          5    1    4    4  503    0 -0.42553192182E+02 -0.41924082454E+01 -0.87734206214E+02  0.97712493530E+02  0.47000000000E+01 0. -1.
         -5    1    4    4    0  503 -0.35307090649E+02  0.66241532716E+02 -0.25841012950E+02  0.79525965929E+02  0.47000000000E+01 0.  1.
<mgrwt>
<rscale>  0 0.13574098E+03</rscale>
<asrwt>0</asrwt>
<pdfrwt beam="1">  1        2 0.87509270E-01 0.13606668E+03</pdfrwt>
<pdfrwt beam="2">  1       -2 0.65470413E-02 0.13606668E+03</pdfrwt>
<totfact> 0.66745300E+03</totfact>
</mgrwt>
</event>
<event>
 8    1  0.6836165E-004  0.1592647E+03  0.7546771E-02  0.1190493E+00
         -2   -1    0    0    0  501 -0.00000000000E+00  0.00000000000E+00  0.43780467826E+03  0.43780467826E+03  0.00000000000E+00 0.  1.
          2   -1    0    0  501    0  0.00000000000E+00 -0.00000000000E+00 -0.91519767201E+02  0.91519767201E+02  0.00000000000E+00 0. -1.
         23    2    1    2    0    0 -0.45035598575E+02  0.11830005676E+03  0.88135811487E+01  0.15615942361E+03  0.91021853436E+02 0.  0.
         23    2    1    2    0    0  0.45035598575E+02 -0.11830005676E+03  0.33747132991E+03  0.37316502185E+03  0.96654676314E+02 0.  0.
          5    1    4    4  502    0  0.50387392640E+02 -0.14676829178E+02  0.83008218433E+02  0.98319646964E+02  0.47000000000E+01 0. -1.
         -5    1    3    3    0  503 -0.18812239032E+02  0.18728594885E+02 -0.34984302327E+02  0.44166186309E+02  0.47000000000E+01 0.  1.
          5    1    3    3  503    0 -0.26223359543E+02  0.99571461870E+02  0.43797883476E+02  0.11199323730E+03  0.47000000000E+01 0. -1.
         -5    1    4    4    0  502 -0.53517940654E+01 -0.10362322758E+03  0.25446311148E+03  0.27484537488E+03  0.47000000000E+01 0.  1.
<mgrwt>
<rscale>  0 0.15841942E+03</rscale>
<asrwt>0</asrwt>
<pdfrwt beam="1">  1        2 0.14079964E-01 0.15926467E+03</pdfrwt>
<pdfrwt beam="2">  1       -2 0.67354565E-01 0.15926467E+03</pdfrwt>
<totfact> 0.85967235E+02</totfact>
</mgrwt>
</event>
<event>
 8    1  0.6836165E-004  0.1050720E+03  0.7546771E-02  0.1270366E+00
          2   -1    0    0  501    0  0.00000000000E+00  0.00000000000E+00  0.65341478399E+02  0.65341478399E+02  0.00000000000E+00 0.  1.
         -2   -1    0    0    0  501 -0.00000000000E+00 -0.00000000000E+00 -0.41832963434E+03  0.41832963434E+03  0.00000000000E+00 0. -1.
         23    2    1    2    0    0 -0.14925411687E+02  0.52749770031E+02 -0.36341601855E+03  0.37808295167E+03  0.88714202125E+02 0.  0.
         23    2    1    2    0    0  0.14925411687E+02 -0.52749770031E+02  0.10427862608E+02  0.10558816106E+03  0.89637120021E+02 0.  0.
          5    1    3    3  502    0  0.33818575525E+02  0.41962722801E+02 -0.19402628839E+03  0.20142705067E+03  0.47000000000E+01 0. -1.
         -5    1    4    4    0  503 -0.92740594189E+01 -0.68676599651E+02 -0.95103010354E+01  0.70107198942E+02  0.47000000000E+01 0. -1.
          5    1    4    4  503    0  0.24199471106E+02  0.15926829620E+02  0.19938163643E+02  0.35480962121E+02  0.47000000000E+01 0.  1.
         -5    1    3    3    0  502 -0.48743987212E+02  0.10787047230E+02 -0.16938973016E+03  0.17665590101E+03  0.47000000000E+01 0.  1.
<mgrwt>
<rscale>  0 0.10487486E+03</rscale>
<asrwt>0</asrwt>
<pdfrwt beam="1">  1        2 0.10052535E-01 0.10507197E+03</pdfrwt>
<pdfrwt beam="2">  1       -2 0.64358407E-01 0.10507197E+03</pdfrwt>
<totfact> 0.13940484E+03</totfact>
</mgrwt>
</event>
<event>
 8    1  0.6836165E-004  0.1149959E+03  0.7546771E-02  0.1252622E+00
         -1   -1    0    0    0  501 -0.00000000000E+00  0.00000000000E+00  0.21027804242E+03  0.21027804242E+03  0.00000000000E+00 0.  1.
          1   -1    0    0  501    0  0.00000000000E+00 -0.00000000000E+00 -0.13425220926E+03  0.13425220926E+03  0.00000000000E+00 0. -1.
         23    2    1    2    0    0 -0.64719597019E+02 -0.20840503575E+02 -0.88517331527E+02  0.14511847903E+03  0.92742127141E+02 0.  0.
         23    2    1    2    0    0  0.64719597019E+02  0.20840503575E+02  0.16454316469E+03  0.19941177266E+03  0.89820093533E+02 0.  0.
          5    1    3    3  502    0 -0.20145181892E+01 -0.36632806057E+02 -0.67488270097E+02  0.76959582664E+02  0.47000000000E+01 0. -1.
         -5    1    3    3    0  502 -0.62705078830E+02  0.15792302482E+02 -0.21029061431E+02  0.68158896363E+02  0.47000000000E+01 0.  1.
          5    1    4    4  503    0  0.33877935185E+02 -0.19675971239E+02  0.13435623014E+03  0.14003051422E+03  0.47000000000E+01 0. -1.
         -5    1    4    4    0  503  0.30841661834E+02  0.40516474814E+02  0.30186934551E+02  0.59381258438E+02  0.47000000000E+01 0.  1.
<mgrwt>
<rscale>  0 0.11440553E+03</rscale>
<asrwt>0</asrwt>
<pdfrwt beam="1">  1        1 0.20654186E-01 0.11499589E+03</pdfrwt>
<pdfrwt beam="2">  1       -1 0.32350468E-01 0.11499589E+03</pdfrwt>
<totfact> 0.21228947E+03</totfact>
</mgrwt>
</event>
<event>
 8    1  0.6836165E-004  0.9751492E+02  0.7546771E-02  0.1286426E+00
          1   -1    0    0  501    0  0.00000000000E+00  0.00000000000E+00  0.34864749219E+03  0.34864749219E+03  0.00000000000E+00 0. -1.
         -1   -1    0    0    0  501 -0.00000000000E+00 -0.00000000000E+00 -0.47806505536E+02  0.47806505536E+02  0.00000000000E+00 0.  1.
         23    2    1    2    0    0  0.26104899645E+02  0.16862011859E+02  0.28098164300E+03  0.29693739621E+03  0.90858903474E+02 0.  0.
         23    2    1    2    0    0 -0.26104899645E+02 -0.16862011859E+02  0.19859343657E+02  0.99516601510E+02  0.92430337099E+02 0.  0.
          5    1    3    3  502    0  0.27259281603E+01 -0.21758119066E+02  0.14699179438E+02  0.26814218351E+02  0.47000000000E+01 0. -1.
         -5    1    4    4    0  503  0.16636463357E+02  0.18435115115E+02 -0.19033457364E+02  0.31638392525E+02  0.47000000000E+01 0.  1.
          5    1    4    4  503    0 -0.42741363001E+02 -0.35297126974E+02  0.38892801021E+02  0.67878208986E+02  0.47000000000E+01 0. -1.
         -5    1    3    3    0  502  0.23378971484E+02  0.38620130925E+02  0.26628246356E+03  0.27012317786E+03  0.47000000000E+01 0.  1.
<mgrwt>
<rscale>  0 0.97140728E+02</rscale>
<asrwt>0</asrwt>
<pdfrwt beam="1">  1        1 0.53638074E-01 0.97514924E+02</pdfrwt>
<pdfrwt beam="2">  1       -1 0.73548472E-02 0.97514924E+02</pdfrwt>
<totfact> 0.66125742E+03</totfact>
</mgrwt>
</event>
<event>
 8    1  0.6836165E-004  0.1015369E+03  0.7546771E-02  0.1277609E+00
          2   -1    0    0  501    0  0.00000000000E+00  0.00000000000E+00  0.75545999118E+03  0.75545999118E+03  0.00000000000E+00 0. -1.
         -2   -1    0    0    0  501 -0.00000000000E+00 -0.00000000000E+00 -0.20635304474E+02  0.20635304474E+02  0.00000000000E+00 0.  1.
         23    2    1    2    0    0 -0.17798028330E+02 -0.40969257776E+02  0.14063718533E+03  0.17346054040E+03  0.91183832350E+02 0.  0.
         23    2    1    2    0    0  0.17798028330E+02  0.40969257776E+02  0.59418750137E+03  0.60263475526E+03  0.90081138746E+02 0.  0.
          5    1    4    4  502    0  0.51513327771E+02  0.27489711434E+02  0.45323133922E+03  0.45700114225E+03  0.47000000000E+01 0. -1.
         -5    1    3    3    0  503  0.23285377860E+02 -0.30134247374E+02  0.15782006672E+02  0.41490281049E+02  0.47000000000E+01 0.  1.
          5    1    3    3  503    0 -0.41083406191E+02 -0.10835010402E+02  0.12485517866E+03  0.13197025935E+03  0.47000000000E+01 0. -1.
         -5    1    4    4    0  502 -0.33715299441E+02  0.13479546342E+02  0.14095616216E+03  0.14563361300E+03  0.47000000000E+01 0.  1.
<mgrwt>
<rscale>  0 0.10128871E+03</rscale>
<asrwt>0</asrwt>
<pdfrwt beam="1">  1        2 0.11622459E+00 0.10153690E+03</pdfrwt>
<pdfrwt beam="2">  1       -2 0.31746628E-02 0.10153690E+03</pdfrwt>
<totfact> 0.13850516E+04</totfact>
</mgrwt>
</event>
<event>
 8    1  0.6836165E-004  0.1547260E+03  0.7546771E-02  0.1195342E+00
          2   -1    0    0  501    0  0.00000000000E+00  0.00000000000E+00  0.56556122061E+03  0.56556122061E+03  0.00000000000E+00 0. -1.
         -2   -1    0    0    0  501 -0.00000000000E+00 -0.00000000000E+00 -0.49788420148E+02  0.49788420148E+02  0.00000000000E+00 0.  1.
         23    2    1    2    0    0  0.12042514834E+03 -0.29468053012E+02  0.13609918654E+03  0.20606583468E+03  0.92571902575E+02 0.  0.
         23    2    1    2    0    0 -0.12042514834E+03  0.29468053012E+02  0.37967361392E+03  0.40928380607E+03  0.89390146575E+02 0.  0.
          5    1    4    4  502    0 -0.88356335781E+02  0.38495871874E+02  0.35412994381E+03  0.36704070799E+03  0.47000000000E+01 0. -1.
         -5    1    4    4    0  502 -0.32068812558E+02 -0.90278188624E+01  0.25543670111E+02  0.42243098075E+02  0.47000000000E+01 0.  1.
          5    1    3    3  503    0  0.14138706704E+02  0.28739907919E+02  0.19273498055E+02  0.37675496835E+02  0.47000000000E+01 0. -1.
         -5    1    3    3    0  503  0.10628644163E+03 -0.58207960931E+02  0.11682568849E+03  0.16839033785E+03  0.47000000000E+01 0.  1.
<mgrwt>
<rscale>  0 0.15425326E+03</rscale>
<asrwt>0</asrwt>
<pdfrwt beam="1">  1        2 0.87009414E-01 0.15472601E+03</pdfrwt>
<pdfrwt beam="2">  1       -2 0.76597573E-02 0.15472601E+03</pdfrwt>
<totfact> 0.53155941E+03</totfact>
</mgrwt>
</event>
<event>
 8    1  0.6836165E-004  0.1044162E+03  0.7546771E-02  0.1271552E+00
          1   -1    0    0  501    0  0.00000000000E+00  0.00000000000E+00  0.22756939675E+03  0.22756939675E+03  0.00000000000E+00 0. -1.
         -1   -1    0    0    0  501 -0.00000000000E+00 -0.00000000000E+00 -0.48328077167E+02  0.48328077167E+02  0.00000000000E+00 0.  1.
         23    2    1    2    0    0 -0.39795474804E+02  0.31824746984E+02  0.10615612330E+03  0.14890222708E+03  0.91138665677E+02 0.  0.
         23    2    1    2    0    0  0.39795474804E+02 -0.31824746984E+02  0.73085196282E+02  0.12699524683E+03  0.90497803656E+02 0.  0.
          5    1    4    4  502    0 -0.25698668438E+02  0.16495194397E+01  0.49854161819E+01  0.26647454820E+02  0.47000000000E+01 0. -1.
         -5    1    4    4    0  502  0.65494143243E+02 -0.33474266423E+02  0.68099780100E+02  0.10034779201E+03  0.47000000000E+01 0.  1.
          5    1    3    3  503    0 -0.66169699986E+02  0.35442907061E+02  0.63656473196E+02  0.98533575176E+02  0.47000000000E+01 0. -1.
         -5    1    3    3    0  503  0.26374225181E+02 -0.36181600778E+01  0.42499650101E+02  0.50368651907E+02  0.47000000000E+01 0.  1.
<mgrwt>
<rscale>  0 0.10427623E+03</rscale>
<asrwt>0</asrwt>
<pdfrwt beam="1">  1        1 0.35010676E-01 0.10441624E+03</pdfrwt>
<pdfrwt beam="2">  1       -1 0.74350889E-02 0.10441624E+03</pdfrwt>
<totfact> 0.11038755E+04</totfact>
</mgrwt>
</event>
<event>
 8    1  0.6836165E-004  0.1047097E+03  0.7546771E-02  0.1272514E+00
          1   -1    0    0  501    0  0.00000000000E+00  0.00000000000E+00  0.50691609589E+03  0.50691609589E+03  0.00000000000E+00 0. -1.
         -1   -1    0    0    0  501 -0.00000000000E+00 -0.00000000000E+00 -0.21001266049E+02  0.21001266049E+02  0.00000000000E+00 0.  1.
         23    2    1    2    0    0  0.11029591510E+02 -0.49664857740E+02  0.25802997068E+03  0.27712735278E+03  0.87360482530E+02 0.  0.
         23    2    1    2    0    0 -0.11029591510E+02  0.49664857740E+02  0.22788485916E+03  0.25079000916E+03  0.91519777505E+02 0.  0.
          5    1    3    3  502    0  0.76278905056E+01  0.24684314213E+02  0.58802576785E+02  0.64399791291E+02  0.47000000000E+01 0. -1.
         -5    1    3    3    0  502  0.34017010043E+01 -0.74349171953E+02  0.19922739390E+03  0.21272756149E+03  0.47000000000E+01 0.  1.
          5    1    4    4  503    0  0.37169942777E+02  0.34204297791E+01  0.87970465783E+02  0.95677567047E+02  0.47000000000E+01 0. -1.
         -5    1    4    4    0  503 -0.48199534287E+02  0.46244427961E+02  0.13991439338E+03  0.15511244211E+03  0.47000000000E+01 0.  1.
<mgrwt>
<rscale>  0 0.10379396E+03</rscale>
<asrwt>0</asrwt>
<pdfrwt beam="1">  1        1 0.77987082E-01 0.10470969E+03</pdfrwt>
<pdfrwt beam="2">  1       -1 0.32309644E-02 0.10470969E+03</pdfrwt>
<totfact> 0.13884221E+04</totfact>
</mgrwt>
</event>
<event>
 8    1  0.6836165E-004  0.9428942E+02  0.7546771E-02  0.1293449E+00
          2   -1    0    0  501    0  0.00000000000E+00  0.00000000000E+00  0.52016530895E+03  0.52016530895E+03  0.00000000000E+00 0. -1.
         -2   -1    0    0    0  501 -0.00000000000E+00 -0.00000000000E+00 -0.21837958068E+02  0.21837958068E+02  0.00000000000E+00 0.  1.
         23    2    1    2    0    0  0.27278758415E+01  0.14996317387E+02  0.37706991015E+03  0.38840033174E+03  0.91873661702E+02 0.  0.
         23    2    1    2    0    0 -0.27278758415E+01 -0.14996317387E+02  0.12125744073E+03  0.15360293527E+03  0.93049255509E+02 0.  0.
          5    1    3    3  502    0  0.34779844605E+02 -0.23861055940E+02  0.18104701420E+03  0.18595456147E+03  0.47000000000E+01 0. -1.
         -5    1    3    3    0  502 -0.32051968764E+02  0.38857373327E+02  0.19602289595E+03  0.20244577027E+03  0.47000000000E+01 0.  1.
          5    1    4    4  503    0  0.25642360963E+02 -0.36719552089E+02  0.26565539910E+02  0.52284549267E+02  0.47000000000E+01 0. -1.
         -5    1    4    4    0  503 -0.28370236805E+02  0.21723234702E+02  0.94691900820E+02  0.10131838601E+03  0.47000000000E+01 0.  1.
<mgrwt>
<rscale>  0 0.93998089E+02</rscale>
<asrwt>0</asrwt>
<pdfrwt beam="1">  1        2 0.80025423E-01 0.94289420E+02</pdfrwt>
<pdfrwt beam="2">  1       -2 0.33596863E-02 0.94289420E+02</pdfrwt>
<totfact> 0.19372667E+04</totfact>
</mgrwt>
</event>
<event>
 8    1  0.6836165E-004  0.9553171E+02  0.7546771E-02  0.1292626E+00
          2   -1    0    0  501    0  0.00000000000E+00  0.00000000000E+00  0.26257066357E+02  0.26257066357E+02  0.00000000000E+00 0. -1.
         -2   -1    0    0    0  501 -0.00000000000E+00 -0.00000000000E+00 -0.52752997850E+03  0.52752997850E+03  0.00000000000E+00 0.  1.
         23    2    1    2    0    0 -0.73196448825E+01  0.15122700097E+02 -0.41571592581E+03  0.42554389383E+03  0.89362191917E+02 0.  0.
         23    2    1    2    0    0  0.73196448825E+01 -0.15122700097E+02 -0.85556986332E+02  0.12824315103E+03  0.94042727605E+02 0.  0.
          5    1    4    4  502    0  0.45246052616E+02 -0.31696736743E-01 -0.17489572607E+02  0.48735833142E+02  0.47000000000E+01 0. -1.
         -5    1    3    3    0  503  0.16038219253E+01  0.51695536925E+02 -0.20752652297E+03  0.21392603516E+03  0.47000000000E+01 0.  1.
          5    1    3    3  503    0 -0.89234668077E+01 -0.36572836828E+02 -0.20818940284E+03  0.21161785867E+03  0.47000000000E+01 0. -1.
         -5    1    4    4    0  502 -0.37926407734E+02 -0.15091003360E+02 -0.68067413725E+02  0.79507317884E+02  0.47000000000E+01 0.  1.
<mgrwt>
<rscale>  0 0.94359342E+02</rscale>
<asrwt>0</asrwt>
<pdfrwt beam="1">  1        2 0.40395488E-02 0.95531711E+02</pdfrwt>
<pdfrwt beam="2">  1       -2 0.81158457E-01 0.95531711E+02</pdfrwt>
<totfact> 0.26858758E+03</totfact>
</mgrwt>
</event>
<event>
 8    1  0.6836165E-004  0.1084008E+03  0.7546771E-02  0.1269555E+00
          1   -1    0    0  501    0  0.00000000000E+00  0.00000000000E+00  0.87859925581E+03  0.87859925581E+03  0.00000000000E+00 0. -1.
         -1   -1    0    0    0  501 -0.00000000000E+00 -0.00000000000E+00 -0.12234153345E+02  0.12234153345E+02  0.00000000000E+00 0.  1.
         23    2    1    2    0    0  0.17431529488E+02  0.48648070350E+02  0.38921623700E+03  0.40402971092E+03  0.95290268095E+02 0.  0.
         23    2    1    2    0    0 -0.17431529488E+02 -0.48648070350E+02  0.47714886547E+03  0.48680369824E+03  0.81463536818E+02 0.  0.
          5    1    4    4  502    0  0.31628882999E+02 -0.11058273036E+02  0.19648447518E+03  0.19937630408E+03  0.47000000000E+01 0. -1.
         -5    1    3    3    0  503  0.11341744458E+02  0.71278319993E+02  0.18857736477E+03  0.20197214306E+03  0.47000000000E+01 0.  1.
          5    1    3    3  503    0  0.60897850305E+01 -0.22630249643E+02  0.20063887223E+03  0.20205756786E+03  0.47000000000E+01 0. -1.
         -5    1    4    4    0  502 -0.49060412487E+02 -0.37589797314E+02  0.28066439029E+03  0.28742739416E+03  0.47000000000E+01 0.  1.
<mgrwt>
<rscale>  0 0.10528690E+03</rscale>
<asrwt>0</asrwt>
<pdfrwt beam="1">  1        1 0.13516907E+00 0.10840078E+03</pdfrwt>
<pdfrwt beam="2">  1       -1 0.18821781E-02 0.10840078E+03</pdfrwt>
<totfact> 0.14005860E+04</totfact>
</mgrwt>
</event>
<event>
 8    1  0.6836165E-004  0.1359544E+03  0.7546771E-02  0.1218911E+00
         -1   -1    0    0    0  501 -0.00000000000E+00  0.00000000000E+00  0.10535559359E+03  0.10535559359E+03  0.00000000000E+00 0.  1.
          1   -1    0    0  501    0  0.00000000000E+00 -0.00000000000E+00 -0.19356326964E+03  0.19356326964E+03  0.00000000000E+00 0. -1.
         23    2    1    2    0    0  0.25608051299E+02  0.96538280923E+02 -0.89974810622E+02  0.16295298205E+03  0.92102094642E+02 0.  0.
         23    2    1    2    0    0 -0.25608051299E+02 -0.96538280923E+02  0.17671345762E+01  0.13596588118E+03  0.92239829286E+02 0.  0.
          5    1    4    4  502    0  0.10925959982E+02 -0.32912858706E+02 -0.38592794200E+02  0.52097280484E+02  0.47000000000E+01 0. -1.
         -5    1    4    4    0  502 -0.36534011281E+02 -0.63625422217E+02  0.40359928776E+02  0.83868600700E+02  0.47000000000E+01 0.  1.
          5    1    3    3  503    0  0.17846007361E+02  0.76807759783E+02 -0.94569090220E+01  0.79557746762E+02  0.47000000000E+01 0. -1.
         -5    1    3    3    0  503  0.77620439382E+01  0.19730521140E+02 -0.80517901600E+02  0.83395235288E+02  0.47000000000E+01 0.  1.
<mgrwt>
<rscale>  0 0.13593104E+03</rscale>
<asrwt>0</asrwt>
<pdfrwt beam="1">  1        1 0.29778964E-01 0.13595440E+03</pdfrwt>
<pdfrwt beam="2">  1       -1 0.16208553E-01 0.13595440E+03</pdfrwt>
<totfact> 0.41667953E+03</totfact>
</mgrwt>
</event>
<event>
 8    1  0.6836165E-004  0.1214908E+03  0.7546771E-02  0.1242102E+00
          1   -1    0    0  501    0  0.00000000000E+00  0.00000000000E+00  0.41981560704E+03  0.41981560704E+03  0.00000000000E+00 0. -1.
         -1   -1    0    0    0  501 -0.00000000000E+00 -0.00000000000E+00 -0.56220976768E+02  0.56220976768E+02  0.00000000000E+00 0.  1.
         23    2    1    2    0    0 -0.43351578732E+02  0.65268239298E+02  0.31065145186E+02  0.12200849979E+03  0.88214105088E+02 0.  0.
         23    2    1    2    0    0  0.43351578732E+02 -0.65268239298E+02  0.33252948509E+03  0.35402808402E+03  0.92847850710E+02 0.  0.
          5    1    3    3  502    0 -0.16411741762E+01  0.71853457557E+02  0.33532910810E+02  0.79449096426E+02  0.47000000000E+01 0. -1.
         -5    1    4    4    0  503 -0.17053142344E+02 -0.54706001815E+02  0.19656521908E+03  0.20480120031E+03  0.47000000000E+01 0.  1.
          5    1    4    4  503    0  0.60404721076E+02 -0.10562237483E+02  0.13596426601E+03  0.14922688371E+03  0.47000000000E+01 0. -1.
         -5    1    3    3    0  502 -0.41710404556E+02 -0.65852182590E+01 -0.24677656237E+01  0.42559403366E+02  0.47000000000E+01 0.  1.
<mgrwt>
<rscale>  0 0.12060536E+03</rscale>
<asrwt>0</asrwt>
<pdfrwt beam="1">  1        1 0.64587015E-01 0.12149085E+03</pdfrwt>
<pdfrwt beam="2">  1       -1 0.86493813E-02 0.12149085E+03</pdfrwt>
<totfact> 0.41699872E+03</totfact>
</mgrwt>
</event>
<event>
 8    1  0.6836165E-004  0.9204497E+02  0.7546771E-02  0.1298540E+00
          1   -1    0    0  501    0  0.00000000000E+00  0.00000000000E+00  0.20709635592E+03  0.20709635592E+03  0.00000000000E+00 0. -1.
         -1   -1    0    0    0  501 -0.00000000000E+00 -0.00000000000E+00 -0.40569814573E+02  0.40569814573E+02  0.00000000000E+00 0.  1.
         23    2    1    2    0    0 -0.86597633169E+00  0.74222112883E+01  0.78044691145E+02  0.12067829349E+03  0.91741144353E+02 0.  0.
         23    2    1    2    0    0  0.86597633169E+00 -0.74222112883E+01  0.88481850199E+02  0.12698787700E+03  0.90780195835E+02 0.  0.
          5    1    3    3  502    0  0.37865009394E+02  0.12539193896E+02  0.69715746072E+02  0.80457228205E+02  0.47000000000E+01 0. -1.
         -5    1    4    4    0  503 -0.36265516032E+02 -0.12911513352E+02  0.78975353345E+02  0.87983471550E+02  0.47000000000E+01 0.  1.
          5    1    4    4  503    0  0.37131492364E+02  0.54893020636E+01  0.95064968539E+01  0.39004405453E+02  0.47000000000E+01 0. -1.
         -5    1    3    3    0  502 -0.38730985726E+02 -0.51169826081E+01  0.83289450728E+01  0.40221065281E+02  0.47000000000E+01 0.  1.
<mgrwt>
<rscale>  0 0.91804595E+02</rscale>
<asrwt>0</asrwt>
<pdfrwt beam="1">  1        1 0.31860977E-01 0.92044971E+02</pdfrwt>
<pdfrwt beam="2">  1       -1 0.62415101E-02 0.92044971E+02</pdfrwt>
<totfact> 0.15878198E+04</totfact>
</mgrwt>
</event>
<event>
 8    1  0.6836165E-004  0.1173611E+03  0.7546771E-02  0.1247812E+00
          2   -1    0    0  501    0  0.00000000000E+00  0.00000000000E+00  0.57711145879E+03  0.57711145879E+03  0.00000000000E+00 0. -1.
         -2   -1    0    0    0  501 -0.00000000000E+00 -0.00000000000E+00 -0.31054100750E+02  0.31054100750E+02  0.00000000000E+00 0.  1.
         23    2    1    2    0    0  0.57471633883E+02  0.45475645533E+02  0.12592399882E+03  0.17213505618E+03  0.91665702686E+02 0.  0.
         23    2    1    2    0    0 -0.57471633883E+02 -0.45475645533E+02  0.42013335922E+03  0.43603050337E+03  0.90771897049E+02 0.  0.
          5    1    3    3  502    0  0.61768634828E+02  0.21343196931E+02  0.28300515171E+02  0.71371601234E+02  0.47000000000E+01 0. -1.
         -5    1    4    4    0  503 -0.82012537526E+02 -0.31762202261E+02  0.32452335750E+03  0.33626238768E+03  0.47000000000E+01 0.  1.
          5    1    4    4  503    0  0.24540903643E+02 -0.13713443272E+02  0.95610001720E+02  0.99768115683E+02  0.47000000000E+01 0. -1.
         -5    1    3    3    0  502 -0.42970009454E+01  0.24132448602E+02  0.97623483648E+02  0.10076345494E+03  0.47000000000E+01 0.  1.
<mgrwt>
<rscale>  0 0.11718650E+03</rscale>
<asrwt>0</asrwt>
<pdfrwt beam="1">  1        2 0.88786370E-01 0.11736108E+03</pdfrwt>
<pdfrwt beam="2">  1       -2 0.47775544E-02 0.11736108E+03</pdfrwt>
<totfact> 0.10460519E+04</totfact>
</mgrwt>
</event>
<event>
 8    1  0.6836165E-004  0.9479372E+02  0.7546771E-02  0.1292710E+00
          1   -1    0    0  501    0  0.00000000000E+00  0.00000000000E+00  0.42631255209E+02  0.42631255209E+02  0.00000000000E+00 0. -1.
         -1   -1    0    0    0  501 -0.00000000000E+00 -0.00000000000E+00 -0.24452988969E+03  0.24452988969E+03  0.00000000000E+00 0.  1.
         23    2    1    2    0    0 -0.21772305269E+02  0.98896618143E+01 -0.43581336312E+02  0.10263413596E+03  0.89791950093E+02 0.  0.
         23    2    1    2    0    0  0.21772305269E+02 -0.98896618143E+01 -0.15831729817E+03  0.18452700894E+03  0.91727920732E+02 0.  0.
          5    1    4    4  502    0 -0.22761732700E+02 -0.36519084828E+01 -0.41804274706E+01  0.23895582958E+02  0.47000000000E+01 0. -1.
         -5    1    3    3    0  503 -0.76094429554E+01 -0.38846120317E+02 -0.84993952626E+01  0.40758488756E+02  0.47000000000E+01 0.  1.
          5    1    3    3  503    0 -0.14162862313E+02  0.48735782132E+02 -0.35081941050E+02  0.61875647202E+02  0.47000000000E+01 0. -1.
         -5    1    4    4    0  502  0.44534037969E+02 -0.62377533315E+01 -0.15413687070E+03  0.16063142599E+03  0.47000000000E+01 0.  1.
<mgrwt>
<rscale>  0 0.94322199E+02</rscale>
<asrwt>0</asrwt>
<pdfrwt beam="1">  1        1 0.65586548E-02 0.94793724E+02</pdfrwt>
<pdfrwt beam="2">  1       -1 0.37619982E-01 0.94793724E+02</pdfrwt>
<totfact> 0.72254064E+03</totfact>
</mgrwt>
</event>
<event>
 8    1  0.6836165E-004  0.1465860E+03  0.7546771E-02  0.1210166E+00
          1   -1    0    0  501    0  0.00000000000E+00  0.00000000000E+00  0.42009247860E+03  0.42009247860E+03  0.00000000000E+00 0. -1.
         -1   -1    0    0    0  501 -0.00000000000E+00 -0.00000000000E+00 -0.47612052505E+02  0.47612052505E+02  0.00000000000E+00 0.  1.
         23    2    1    2    0    0  0.48850345530E+02  0.79258756491E+02  0.14957290858E+03  0.20942659901E+03  0.11322163509E+03 0.  0.
         23    2    1    2    0    0 -0.48850345530E+02 -0.79258756491E+02  0.22290751751E+03  0.25827793209E+03  0.91386115483E+02 0.  0.
          5    1    3    3  502    0  0.49625938139E+02  0.40403154721E+02  0.15697808439E+03  0.16958584147E+03  0.47000000000E+01 0. -1.
         -5    1    3    3    0  502 -0.77559260902E+00  0.38855601771E+02 -0.74051758087E+01  0.39840757543E+02  0.47000000000E+01 0.  1.
          5    1    4    4  503    0  0.24858188696E+02 -0.29002874517E+02  0.45093306866E+02  0.59283999525E+02  0.47000000000E+01 0. -1.
         -5    1    4    4    0  503 -0.73708534227E+02 -0.50255881975E+02  0.17781421064E+03  0.19899393256E+03  0.47000000000E+01 0.  1.
<mgrwt>
<rscale>  0 0.14237652E+03</rscale>
<asrwt>0</asrwt>
<pdfrwt beam="1">  1        1 0.64629610E-01 0.14658597E+03</pdfrwt>
<pdfrwt beam="2">  1       -1 0.73249314E-02 0.14658597E+03</pdfrwt>
<totfact> 0.54066077E+03</totfact>
</mgrwt>
</event>
<event>
 8    1  0.6836165E-004  0.1005078E+03  0.7546771E-02  0.1288608E+00
         -1   -1    0    0    0  501 -0.00000000000E+00  0.00000000000E+00  0.75932280620E+02  0.75932280620E+02  0.00000000000E+00 0.  1.
          1   -1    0    0  501    0  0.00000000000E+00 -0.00000000000E+00 -0.11743562638E+03  0.11743562638E+03  0.00000000000E+00 0. -1.
         23    2    1    2    0    0 -0.23589757723E+02  0.20251521346E+02 -0.23576802754E+01  0.10053543289E+03  0.95578312513E+02 0.  0.
         23    2    1    2    0    0  0.23589757723E+02 -0.20251521346E+02 -0.39145665490E+02  0.92832474119E+02  0.78223297924E+02 0.  0.
          5    1    3    3  502    0  0.29538511746E+02  0.22524605742E+02 -0.22262248549E+02  0.43561212684E+02  0.47000000000E+01 0. -1.
         -5    1    3    3    0  502 -0.53128269469E+02 -0.22730843962E+01  0.19904568273E+02  0.56974220202E+02  0.47000000000E+01 0.  1.
          5    1    4    4  503    0  0.38454547868E+02 -0.35385789110E+02 -0.46280262905E+02  0.69963269343E+02  0.47000000000E+01 0. -1.
         -5    1    4    4    0  503 -0.14864790145E+02  0.15134267764E+02  0.71345974146E+01  0.22869204776E+02  0.47000000000E+01 0.  1.
<mgrwt>
<rscale>  0 0.96149266E+02</rscale>
<asrwt>0</asrwt>
<pdfrwt beam="1">  1        1 0.18067019E-01 0.10050778E+03</pdfrwt>
<pdfrwt beam="2">  1       -1 0.11681889E-01 0.10050778E+03</pdfrwt>
<totfact> 0.12672889E+04</totfact>
</mgrwt>
</event>
<event>
 8    1  0.6836165E-004  0.1121191E+03  0.7546771E-02  0.1257071E+00
         -3   -1    0    0    0  501 -0.00000000000E+00  0.00000000000E+00  0.43410491379E+02  0.43410491379E+02  0.00000000000E+00 0.  1.
          3   -1    0    0  501    0  0.00000000000E+00 -0.00000000000E+00 -0.30492912823E+03  0.30492912823E+03  0.00000000000E+00 0. -1.
         23    2    1    2    0    0  0.40440106358E+02  0.49950887236E+02 -0.17201636312E+03  0.20487759232E+03  0.90855408851E+02 0.  0.
         23    2    1    2    0    0 -0.40440106358E+02 -0.49950887236E+02 -0.89502273735E+02  0.14346202729E+03  0.91870577076E+02 0.  0.
          5    1    4    4  502    0 -0.37280719504E+02 -0.76344515093E+02 -0.69444728450E+02  0.10983167731E+03  0.47000000000E+01 0. -1.
         -5    1    3    3    0  503  0.69200427738E+02  0.41704118999E+02 -0.12188116175E+03  0.14630461486E+03  0.47000000000E+01 0.  1.
          5    1    3    3  503    0 -0.28760321380E+02  0.82467682370E+01 -0.50135201370E+02  0.58572977461E+02  0.47000000000E+01 0. -1.
         -5    1    4    4    0  502 -0.31593868541E+01  0.26393627857E+02 -0.20057545285E+02  0.33630349978E+02  0.47000000000E+01 0.  1.
<mgrwt>
<rscale>  0 0.11191096E+03</rscale>
<asrwt>0</asrwt>
<pdfrwt beam="1">  1        3 0.46912172E-01 0.11211912E+03</pdfrwt>
<pdfrwt beam="2">  1       -3 0.66785373E-02 0.11211912E+03</pdfrwt>
<totfact> 0.14460651E+03</totfact>
</mgrwt>
</event>
<event>
 8    1  0.6836165E-004  0.1015983E+03  0.7546771E-02  0.1280450E+00
         -1   -1    0    0    0  501 -0.00000000000E+00  0.00000000000E+00  0.53833386029E+02  0.53833386029E+02  0.00000000000E+00 0.  1.
          1   -1    0    0  501    0  0.00000000000E+00 -0.00000000000E+00 -0.18786565003E+03  0.18786565003E+03  0.00000000000E+00 0. -1.
         23    2    1    2    0    0 -0.25345646298E+02  0.73216124068E+01 -0.94429606066E+02  0.13870535283E+03  0.98113284562E+02 0.  0.
         23    2    1    2    0    0  0.25345646298E+02 -0.73216124068E+01 -0.39602657930E+02  0.10299368322E+03  0.91341778363E+02 0.  0.
          5    1    4    4  502    0  0.44699985753E+02 -0.37534228726E+02 -0.28616907043E+02  0.65176103144E+02  0.47000000000E+01 0. -1.
         -5    1    4    4    0  502 -0.19354339454E+02  0.30212616319E+02 -0.10985750887E+02  0.37817580080E+02  0.47000000000E+01 0.  1.
          5    1    3    3  503    0  0.35880893188E+02 -0.67058887080E+01 -0.22682691064E+02  0.43231954770E+02  0.47000000000E+01 0. -1.
         -5    1    3    3    0  503 -0.61226539486E+02  0.14027501115E+02 -0.71746915001E+02  0.95473398060E+02  0.47000000000E+01 0.  1.
<mgrwt>
<rscale>  0 0.99926806E+02</rscale>
<asrwt>0</asrwt>
<pdfrwt beam="1">  1        1 0.28902408E-01 0.10159835E+03</pdfrwt>
<pdfrwt beam="2">  1       -1 0.82820593E-02 0.10159835E+03</pdfrwt>
<totfact> 0.11864022E+04</totfact>
</mgrwt>
</event>
