<event>
 7    1  0.1795883E-009  0.1399262E+03  0.7546771E-02  0.1244755E+00
          2   -1    0    0  501    0  0.00000000000E+00  0.00000000000E+00  0.74357225442E+03  0.74357225442E+03  0.00000000000E+00 0.  1.
         -2   -1    0    0    0  501 -0.00000000000E+00 -0.00000000000E+00 -0.21412575717E+02  0.21412575717E+02  0.00000000000E+00 0. -1.
         25    2    1    2    0    0 -0.62673239280E+02  0.58981708784E+01  0.24416268356E+03  0.28141564315E+03  0.12496649481E+03 0.  0.
          5    1    1    2  502    0  0.15367852512E+02  0.14312668288E+02  0.13519800799E+03  0.13690001727E+03  0.47000000000E+01 0. -1.
         -5    1    1    2    0  502  0.47305386768E+02 -0.20210839166E+02  0.34279898716E+03  0.34666916972E+03  0.47000000000E+01 0.  1.
          5    1    3    3  503    0  0.21883588333E+02 -0.30818861474E+02  0.30943451576E+02  0.49074238214E+02  0.47000000000E+01 0.  1.
         -5    1    3    3    0  503 -0.84556827613E+02  0.36717032353E+02  0.21321923198E+03  0.23234140494E+03  0.47000000000E+01 0.  1.
<mgrwt>
<rscale>  0 0.11900083E+03</rscale>
<asrwt>0</asrwt>
<pdfrwt beam="1">  1        2 0.11439571E+00 0.13992622E+03</pdfrwt>
<pdfrwt beam="2">  1       -2 0.32942430E-02 0.13992622E+03</pdfrwt>
<totfact> 0.13691590E+04</totfact>
</mgrwt>
</event>
<event>
 6    1  0.1795883E-009  0.2673638E+03  0.7546771E-02  0.1121352E+00
          1   -1    0    0  501    0  0.00000000000E+00  0.00000000000E+00  0.43527747194E+03  0.43527747194E+03  0.00000000000E+00 0. -1.
         -1   -1    0    0    0  501 -0.00000000000E+00 -0.00000000000E+00 -0.17508243672E+03  0.17508243672E+03  0.00000000000E+00 0.  1.
          5    1    1    2  502    0 -0.21602142066E+02 -0.12506670253E+02 -0.28837391914E+02  0.38428563791E+02  0.47000000000E+01 0. -1.
         -5    1    1    2    0  502 -0.32982431173E+02  0.12791721032E+03  0.49612604521E+02  0.14118836351E+03  0.47000000000E+01 0.  1.
          5    1    1    2  503    0 -0.33865168576E+02 -0.10995315505E+02  0.28437095897E+03  0.28662986396E+03  0.47000000000E+01 0. -1.
         -5    1    1    2    0  503  0.88449741815E+02 -0.10441522456E+03 -0.44951136360E+02  0.14411311740E+03  0.47000000000E+01 0.  1.
<mgrwt>
<rscale>  0 0.23767428E+03</rscale>
<asrwt>0</asrwt>
<pdfrwt beam="1">  1        1 0.66965765E-01 0.26736383E+03</pdfrwt>
<pdfrwt beam="2">  1       -1 0.26935760E-01 0.26736383E+03</pdfrwt>
<totfact> 0.66891918E+02</totfact>
</mgrwt>
</event>
<event>
 7    1  0.1795883E-009  0.1329677E+03  0.7546771E-02  0.1251843E+00
          1   -1    0    0  501    0  0.00000000000E+00  0.00000000000E+00  0.19983669109E+02  0.19983669109E+02  0.00000000000E+00 0. -1.
         -1   -1    0    0    0  501 -0.00000000000E+00 -0.00000000000E+00 -0.69703922274E+03  0.69703922274E+03  0.00000000000E+00 0.  1.
         25    2    1    2    0    0  0.11009375024E+02 -0.44074208208E+02 -0.57956710456E+03  0.59462462519E+03  0.12496669166E+03 0.  0.
          5    1    1    2  502    0  0.22292037187E+02  0.21000871586E+02 -0.27677544933E+02  0.41546456201E+02  0.47000000000E+01 0. -1.
         -5    1    3    3    0  503  0.11110260732E+02  0.41825089121E+02 -0.13615103326E+03  0.14294044155E+03  0.47000000000E+01 0. -1.
          5    1    3    3  503    0 -0.10088570887E+00 -0.85899297329E+02 -0.44341607131E+03  0.45168418364E+03  0.47000000000E+01 0. -1.
         -5    1    1    2    0  502 -0.33301412211E+02  0.23073336622E+02 -0.69810904133E+02  0.80851810456E+02  0.47000000000E+01 0.  1.
<mgrwt>
<rscale>  0 0.11484997E+03</rscale>
<asrwt>0</asrwt>
<pdfrwt beam="1">  1        1 0.30744109E-02 0.13296773E+03</pdfrwt>
<pdfrwt beam="2">  1       -1 0.10723679E+00 0.13296773E+03</pdfrwt>
<totfact> 0.27301443E+03</totfact>
</mgrwt>
</event>
<event>
 7    1  0.2002397E-009  0.4870228E+03  0.7546771E-02  0.1051794E+00
         -2   -1    0    0    0  501 -0.00000000000E+00  0.00000000000E+00  0.15003729295E+03  0.15003729295E+03  0.00000000000E+00 0.  1.
          2   -1    0    0  501    0  0.00000000000E+00 -0.00000000000E+00 -0.73319788845E+03  0.73319788845E+03  0.00000000000E+00 0. -1.
         25    2    1    2    0    0  0.81003770399E+02  0.93924174806E+02 -0.14578854284E+03  0.22864710513E+03  0.12506733397E+03 0.  0.
          5    1    3    3  502    0  0.68754055185E+02  0.12480898164E+03 -0.11907740506E+03  0.18575769271E+03  0.47000000000E+01 0. -1.
         -5    1    1    2    0  503  0.14889964084E+03 -0.11414058127E+03 -0.35302023686E+02  0.19096465174E+03  0.47000000000E+01 0.  1.
          5    1    1    2  503    0 -0.22990341124E+03  0.20216406465E+02 -0.40207002897E+03  0.46362342455E+03  0.47000000000E+01 0. -1.
         -5    1    3    3    0  502  0.12249715214E+02 -0.30884806838E+02 -0.26711137784E+02  0.42889412423E+02  0.47000000000E+01 0. -1.
<mgrwt>
<rscale>  0 0.37768202E+03</rscale>
<asrwt>0</asrwt>
<pdfrwt beam="1">  1        2 0.11279967E+00 0.48702283E+03</pdfrwt>
<pdfrwt beam="2">  1       -2 0.23082661E-01 0.48702283E+03</pdfrwt>
<totfact> 0.64610097E+02</totfact>
</mgrwt>
</event>
<event>
 7    1  0.1795883E-009  0.3097038E+03  0.7546771E-02  0.1080606E+00
          2   -1    0    0  501    0  0.00000000000E+00  0.00000000000E+00  0.16522925549E+04  0.16522925549E+04  0.00000000000E+00 0.  1.
         -2   -1    0    0    0  501 -0.00000000000E+00 -0.00000000000E+00 -0.61162801612E+02  0.61162801612E+02  0.00000000000E+00 0. -1.
         25    2    1    2    0    0  0.10188744421E+03  0.26322967711E+03  0.59545549932E+03  0.67072640610E+03  0.12504297649E+03 0.  0.
          5    1    1    2  502    0 -0.62156793495E+02 -0.21709508038E+03  0.57713801442E+03  0.61976134003E+03  0.47000000000E+01 0. -1.
         -5    1    3    3    0  503  0.50734591014E+02  0.96562046134E+02  0.11039727433E+03  0.15526711068E+03  0.47000000000E+01 0.  1.
          5    1    3    3  503    0  0.51152853200E+02  0.16666763097E+03  0.48505822499E+03  0.51545929542E+03  0.47000000000E+01 0.  1.
         -5    1    1    2    0  502 -0.39730650720E+02 -0.46134596728E+02  0.41853623958E+03  0.42296761042E+03  0.47000000000E+01 0.  1.
<mgrwt>
<rscale>  0 0.30945700E+03</rscale>
<asrwt>0</asrwt>
<pdfrwt beam="1">  1        2 0.25419882E+00 0.30970380E+03</pdfrwt>
<pdfrwt beam="2">  1       -2 0.94096631E-02 0.30970380E+03</pdfrwt>
<totfact> 0.82604980E+02</totfact>
</mgrwt>
</event>
<event>
 7    1  0.1795883E-009  0.2599264E+03  0.7546771E-02  0.1132955E+00
          2   -1    0    0  501    0  0.00000000000E+00  0.00000000000E+00  0.83428951915E+03  0.83428951915E+03  0.00000000000E+00 0. -1.
         -2   -1    0    0    0  501 -0.00000000000E+00 -0.00000000000E+00 -0.48011630365E+02  0.48011630365E+02  0.00000000000E+00 0.  1.
         25    2    1    2    0    0  0.51587603568E+02 -0.18605144097E+02  0.21460606571E+03  0.25431196390E+03  0.12494550539E+03 0.  0.
          5    1    3    3  502    0  0.45882800068E+02 -0.47855704969E+02  0.21405576770E+03  0.22413692584E+03  0.47000000000E+01 0. -1.
         -5    1    1    2    0  503 -0.37976187449E+02  0.10267839861E+03  0.98977943640E+02  0.14766098903E+03  0.47000000000E+01 0.  1.
          5    1    1    2  503    0 -0.13611416119E+02 -0.84073254515E+02  0.47269387944E+03  0.48032819658E+03  0.47000000000E+01 0. -1.
         -5    1    3    3    0  502  0.57048035002E+01  0.29250560872E+02  0.55029801178E+00  0.30175038065E+02  0.47000000000E+01 0. -1.
<mgrwt>
<rscale>  0 0.22124925E+03</rscale>
<asrwt>0</asrwt>
<pdfrwt beam="1">  1        2 0.12835222E+00 0.25992642E+03</pdfrwt>
<pdfrwt beam="2">  1       -2 0.73864053E-02 0.25992642E+03</pdfrwt>
<totfact> 0.35875548E+03</totfact>
</mgrwt>
</event>
<event>
 7    1  0.1795883E-009  0.1615326E+03  0.7546771E-02  0.1195390E+00
         -1   -1    0    0    0  501 -0.00000000000E+00  0.00000000000E+00  0.26978327885E+02  0.26978327885E+02  0.00000000000E+00 0.  1.
          1   -1    0    0  501    0  0.00000000000E+00 -0.00000000000E+00 -0.96265450030E+03  0.96265450030E+03  0.00000000000E+00 0. -1.
         25    2    1    2    0    0  0.37396619866E+02 -0.95169887854E+02 -0.70036838877E+03  0.71875494213E+03  0.12504787927E+03 0.  0.
          5    1    3    3  502    0  0.40659987146E+02 -0.16136780008E+02 -0.65157701803E+02  0.78620902615E+02  0.47000000000E+01 0. -1.
         -5    1    1    2    0  503  0.23203666096E+01  0.51256536469E+02 -0.35862099791E+02  0.62775766291E+02  0.47000000000E+01 0.  1.
          5    1    1    2  503    0 -0.39716986475E+02  0.43913351386E+02 -0.19944568385E+03  0.20810211977E+03  0.47000000000E+01 0. -1.
         -5    1    3    3    0  502 -0.32633672801E+01 -0.79033107846E+02 -0.63521068697E+03  0.64013403951E+03  0.47000000000E+01 0. -1.
<mgrwt>
<rscale>  0 0.15421249E+03</rscale>
<asrwt>0</asrwt>
<pdfrwt beam="1">  1        1 0.14810070E+00 0.16153262E+03</pdfrwt>
<pdfrwt beam="2">  1       -1 0.41505119E-02 0.16153262E+03</pdfrwt>
<totfact> 0.39132508E+03</totfact>
</mgrwt>
</event>
<event>
 7    1  0.1795883E-009  0.1604205E+03  0.7546771E-02  0.1206383E+00
         -1   -1    0    0    0  501 -0.00000000000E+00  0.00000000000E+00  0.51643858753E+02  0.51643858753E+02  0.00000000000E+00 0.  1.
          1   -1    0    0  501    0  0.00000000000E+00 -0.00000000000E+00 -0.43463194490E+03  0.43463194490E+03  0.00000000000E+00 0. -1.
         25    2    1    2    0    0 -0.99701545705E+02  0.13641850765E+02 -0.11504009820E+03  0.19740553738E+03  0.12493287671E+03 0.  0.
          5    1    3    3  502    0  0.22177569091E+02  0.29231044485E+02 -0.20431834893E+02  0.42259299682E+02  0.47000000000E+01 0.  1.
         -5    1    1    2    0  503  0.81884464055E+02  0.43856139055E+01 -0.20628009677E+03  0.22203123065E+03  0.47000000000E+01 0. -1.
          5    1    1    2  503    0  0.17817081650E+02 -0.18027464671E+02 -0.61667891175E+02  0.66839035623E+02  0.47000000000E+01 0. -1.
         -5    1    3    3    0  502 -0.12187911480E+03 -0.15589193720E+02 -0.94608263310E+02  0.15514623770E+03  0.47000000000E+01 0.  1.
<mgrwt>
<rscale>  0 0.14528979E+03</rscale>
<asrwt>0</asrwt>
<pdfrwt beam="1">  1        1 0.66866450E-01 0.16042045E+03</pdfrwt>
<pdfrwt beam="2">  1       -1 0.79452095E-02 0.16042045E+03</pdfrwt>
<totfact> 0.46004423E+03</totfact>
</mgrwt>
</event>
<event>
 7    1  0.1795883E-009  0.2590714E+03  0.7546771E-02  0.1111397E+00
         -2   -1    0    0    0  501 -0.00000000000E+00  0.00000000000E+00  0.93940380759E+02  0.93940380759E+02  0.00000000000E+00 0.  1.
          2   -1    0    0  501    0  0.00000000000E+00 -0.00000000000E+00 -0.66027430781E+03  0.66027430781E+03  0.00000000000E+00 0. -1.
         25    2    1    2    0    0 -0.10911956392E+03  0.19899502642E+03 -0.33925519301E+03  0.42686307389E+03  0.12494758141E+03 0.  0.
          5    1    3    3  502    0 -0.14324668740E+02  0.12529698010E+03 -0.10738362417E+03  0.16570414025E+03  0.47000000000E+01 0.  1.
         -5    1    1    2    0  503  0.16136570223E+02 -0.86500053753E+02 -0.10454523017E+03  0.13672762468E+03  0.47000000000E+01 0.  1.
          5    1    1    2  503    0  0.92982993702E+02 -0.11249497266E+03 -0.12253350387E+03  0.19062399000E+03  0.47000000000E+01 0. -1.
         -5    1    3    3    0  502 -0.94794895185E+02  0.73698046315E+02 -0.23187156884E+03  0.26115893364E+03  0.47000000000E+01 0.  1.
<mgrwt>
<rscale>  0 0.25304248E+03</rscale>
<asrwt>0</asrwt>
<pdfrwt beam="1">  1        2 0.10158067E+00 0.25907141E+03</pdfrwt>
<pdfrwt beam="2">  1       -2 0.14452366E-01 0.25907141E+03</pdfrwt>
<totfact> 0.16382821E+03</totfact>
</mgrwt>
</event>
<event>
 7    1  0.1795883E-009  0.3557014E+03  0.7546771E-02  0.1082200E+00
          1   -1    0    0  501    0  0.00000000000E+00  0.00000000000E+00  0.55107224659E+03  0.55107224659E+03  0.00000000000E+00 0. -1.
         -1   -1    0    0    0  501 -0.00000000000E+00 -0.00000000000E+00 -0.13973174172E+03  0.13973174172E+03  0.00000000000E+00 0.  1.
         25    2    1    2    0    0 -0.14147543348E+03 -0.49865390725E+02  0.10675527177E+03  0.22251382590E+03  0.12495542883E+03 0.  0.
          5    1    3    3  502    0  0.23086754863E+02 -0.11264939549E+02  0.15467137296E+02  0.30351597146E+02  0.47000000000E+01 0.  1.
         -5    1    1    2    0  503  0.11211590296E+02  0.17213295116E+03  0.11289063382E+03  0.20620823901E+03  0.47000000000E+01 0.  1.
          5    1    1    2  503    0  0.13026384319E+03 -0.12226756043E+03  0.19169459928E+03  0.26208192339E+03  0.47000000000E+01 0. -1.
         -5    1    3    3    0  502 -0.16456218835E+03 -0.38600451177E+02  0.91288134473E+02  0.19216222875E+03  0.47000000000E+01 0.  1.
<mgrwt>
<rscale>  0 0.30616266E+03</rscale>
<asrwt>0</asrwt>
<pdfrwt beam="1">  1        1 0.84780344E-01 0.35570144E+03</pdfrwt>
<pdfrwt beam="2">  1       -1 0.21497191E-01 0.35570144E+03</pdfrwt>
<totfact> 0.70957568E+02</totfact>
</mgrwt>
</event>
<event>
 7    1  0.1795883E-009  0.2612510E+03  0.7546771E-02  0.1126302E+00
          1   -1    0    0  501    0  0.00000000000E+00  0.00000000000E+00  0.11535816602E+04  0.11535816602E+04  0.00000000000E+00 0. -1.
         -1   -1    0    0    0  501 -0.00000000000E+00 -0.00000000000E+00 -0.38154955724E+02  0.38154955724E+02  0.00000000000E+00 0.  1.
         25    2    1    2    0    0  0.93193838500E+02  0.26868967498E+02  0.40902038748E+03  0.43856865752E+03  0.12505101773E+03 0.  0.
          5    1    3    3  502    0 -0.16440752208E+02  0.42719679132E+02  0.14764660264E+03  0.15465082796E+03  0.47000000000E+01 0.  1.
         -5    1    3    3    0  502  0.10963459071E+03 -0.15850711635E+02  0.26137378484E+03  0.28391782955E+03  0.47000000000E+01 0.  1.
          5    1    1    2  503    0  0.57335571365E+01 -0.11064911956E+03  0.18346506105E+03  0.21437728416E+03  0.47000000000E+01 0. -1.
         -5    1    1    2    0  503 -0.98927395636E+02  0.83780152059E+02  0.52294125592E+03  0.53879067422E+03  0.47000000000E+01 0.  1.
<mgrwt>
<rscale>  0 0.23047995E+03</rscale>
<asrwt>0</asrwt>
<pdfrwt beam="1">  1        1 0.17747407E+00 0.26125101E+03</pdfrwt>
<pdfrwt beam="2">  1       -1 0.58699941E-02 0.26125101E+03</pdfrwt>
<totfact> 0.17056493E+03</totfact>
</mgrwt>
</event>
<event>
 7    1  0.1795883E-009  0.1426839E+03  0.7546771E-02  0.1235489E+00
         -1   -1    0    0    0  501 -0.00000000000E+00  0.00000000000E+00  0.70487824269E+02  0.70487824269E+02  0.00000000000E+00 0.  1.
          1   -1    0    0  501    0  0.00000000000E+00 -0.00000000000E+00 -0.22138746907E+03  0.22138746907E+03  0.00000000000E+00 0. -1.
         25    2    1    2    0    0  0.49868869556E+02  0.47522777326E+02 -0.31243872201E+02  0.14606460470E+03  0.12495347407E+03 0.  0.
          5    1    3    3  502    0  0.31115944031E+02  0.27766340697E+02 -0.79816591392E+02  0.90177324811E+02  0.47000000000E+01 0. -1.
         -5    1    3    3    0  502  0.18752925525E+02  0.19756436629E+02  0.48572719191E+02  0.55887279891E+02  0.47000000000E+01 0. -1.
          5    1    1    2  503    0 -0.19562484180E+02 -0.48266841356E+02 -0.81785351060E+02  0.97073747273E+02  0.47000000000E+01 0. -1.
         -5    1    1    2    0  503 -0.30306385377E+02  0.74406402927E+00 -0.37870421538E+02  0.48736941362E+02  0.47000000000E+01 0.  1.
<mgrwt>
<rscale>  0 0.12473162E+03</rscale>
<asrwt>0</asrwt>
<pdfrwt beam="1">  1        1 0.34059610E-01 0.14268388E+03</pdfrwt>
<pdfrwt beam="2">  1       -1 0.10844281E-01 0.14268388E+03</pdfrwt>
<totfact> 0.66063315E+03</totfact>
</mgrwt>
</event>
<event>
 6    1  0.1795883E-009  0.2579705E+03  0.7546771E-02  0.1162753E+00
         -1   -1    0    0    0  501 -0.00000000000E+00  0.00000000000E+00  0.41174511180E+02  0.41174511180E+02  0.00000000000E+00 0.  1.
          1   -1    0    0  501    0  0.00000000000E+00 -0.00000000000E+00 -0.68917484394E+03  0.68917484394E+03  0.00000000000E+00 0. -1.
          5    1    1    2  502    0  0.97128354064E+02 -0.27029988396E+01 -0.70097364381E+02  0.11990393596E+03  0.47000000000E+01 0.  1.
         -5    1    1    2    0  502 -0.41432213801E+02 -0.13983578066E+02 -0.59855398061E+02  0.74276022195E+02  0.47000000000E+01 0. -1.
          5    1    1    2  503    0  0.18452820658E+02  0.12080561598E+02 -0.13760282896E+02  0.26417455293E+02  0.47000000000E+01 0.  1.
         -5    1    1    2    0  503 -0.74148960920E+02  0.46060153077E+01 -0.50428728742E+03  0.50975194167E+03  0.47000000000E+01 0.  1.
<mgrwt>
<rscale>  0 0.18531871E+03</rscale>
<asrwt>0</asrwt>
<pdfrwt beam="1">  1        1 0.10602689E+00 0.25797053E+03</pdfrwt>
<pdfrwt beam="2">  1       -1 0.63345405E-02 0.25797053E+03</pdfrwt>
<totfact> 0.35342573E+03</totfact>
</mgrwt>
</event>
<event>
 7    1  0.1795883E-009  0.2632581E+03  0.7546771E-02  0.1124491E+00
         -1   -1    0    0    0  501 -0.00000000000E+00  0.00000000000E+00  0.13535339152E+04  0.13535339152E+04  0.00000000000E+00 0.  1.
          1   -1    0    0  501    0  0.00000000000E+00 -0.00000000000E+00 -0.55219581765E+02  0.55219581765E+02  0.00000000000E+00 0. -1.
         25    2    1    2    0    0 -0.25595330100E+02  0.99370817599E+02  0.12005244258E+03  0.20143998831E+03  0.12504319097E+03 0.  0.
          5    1    1    2  502    0 -0.85720479112E+02  0.11043899410E+02  0.22209631541E+03  0.23836701024E+03  0.47000000000E+01 0. -1.
         -5    1    1    2    0  502  0.11131580921E+03 -0.11041471701E+03  0.95616557543E+03  0.96894649840E+03  0.47000000000E+01 0.  1.
          5    1    3    3  503    0 -0.61001804794E+02  0.71629049549E+02  0.12435902931E+03  0.15601025318E+03  0.47000000000E+01 0.  1.
         -5    1    3    3    0  503  0.35406474694E+02  0.27741768050E+02 -0.43065867282E+01  0.45429735131E+02  0.47000000000E+01 0.  1.
<mgrwt>
<rscale>  0 0.23307859E+03</rscale>
<asrwt>0</asrwt>
<pdfrwt beam="1">  1        1 0.84953213E-02 0.26325810E+03</pdfrwt>
<pdfrwt beam="2">  1       -1 0.20823596E+00 0.26325810E+03</pdfrwt>
<totfact> 0.11816208E+02</totfact>
</mgrwt>
</event>
<event>
 7    1  0.1795883E-009  0.2763137E+03  0.7546771E-02  0.1109634E+00
         -2   -1    0    0    0  501 -0.00000000000E+00  0.00000000000E+00  0.30301948708E+02  0.30301948708E+02  0.00000000000E+00 0. -1.
          2   -1    0    0  501    0  0.00000000000E+00 -0.00000000000E+00 -0.18997476762E+04  0.18997476762E+04  0.00000000000E+00 0.  1.
         25    2    1    2    0    0 -0.94983429276E+02 -0.12904269815E+03 -0.82530143384E+03  0.84996326566E+03  0.12506488910E+03 0.  0.
          5    1    1    2  502    0  0.34768238125E+02  0.16864226379E+02 -0.12910551762E+02  0.41012252565E+02  0.47000000000E+01 0. -1.
         -5    1    3    3    0  503 -0.69991571083E+02 -0.15073804686E+03 -0.61753914067E+03  0.63952909164E+03  0.47000000000E+01 0. -1.
          5    1    3    3  503    0 -0.24991858193E+02  0.21695348707E+02 -0.20776229317E+03  0.21043417402E+03  0.47000000000E+01 0. -1.
         -5    1    1    2    0  502  0.60215191152E+02  0.11217847177E+03 -0.10312337419E+04  0.10390741067E+04  0.47000000000E+01 0.  1.
<mgrwt>
<rscale>  0 0.25589710E+03</rscale>
<asrwt>0</asrwt>
<pdfrwt beam="1">  1        2 0.29226895E+00 0.27631366E+03</pdfrwt>
<pdfrwt beam="2">  1       -2 0.46618371E-02 0.27631366E+03</pdfrwt>
<totfact> 0.18264528E+03</totfact>
</mgrwt>
</event>
<event>
 7    1  0.1795883E-009  0.1386873E+03  0.7546771E-02  0.1234433E+00
         -1   -1    0    0    0  501 -0.00000000000E+00  0.00000000000E+00  0.13208249979E+03  0.13208249979E+03  0.00000000000E+00 0.  1.
          1   -1    0    0  501    0  0.00000000000E+00 -0.00000000000E+00 -0.21557015217E+03  0.21557015217E+03  0.00000000000E+00 0. -1.
         25    2    1    2    0    0  0.41429107252E+01 -0.59834194121E+02 -0.17098773634E+03  0.22016126638E+03  0.12504752192E+03 0.  0.
          5    1    1    2  502    0  0.21042088223E+01  0.34659099197E+02 -0.10960190398E+01  0.35056698499E+02  0.47000000000E+01 0. -1.
         -5    1    1    2    0  502 -0.62471195475E+01  0.25175094924E+02  0.88596103006E+02  0.92434687076E+02  0.47000000000E+01 0.  1.
          5    1    3    3  503    0 -0.19627746063E+02 -0.30575849089E+02  0.77364033600E+01  0.37444263913E+02  0.47000000000E+01 0.  1.
         -5    1    3    3    0  503  0.23770656788E+02 -0.29258345032E+02 -0.17872413970E+03  0.18271700247E+03  0.47000000000E+01 0.  1.
<mgrwt>
<rscale>  0 0.12540820E+03</rscale>
<asrwt>0</asrwt>
<pdfrwt beam="1">  1        1 0.33164639E-01 0.13868734E+03</pdfrwt>
<pdfrwt beam="2">  1       -1 0.20320385E-01 0.13868734E+03</pdfrwt>
<totfact> 0.25456228E+03</totfact>
</mgrwt>
</event>
<event>
 7    1  0.1795883E-009  0.2702175E+03  0.7546771E-02  0.1121789E+00
         -4   -1    0    0    0  501 -0.00000000000E+00  0.00000000000E+00  0.90850282701E+03  0.90850282701E+03  0.00000000000E+00 0. -1.
          4   -1    0    0  501    0  0.00000000000E+00 -0.00000000000E+00 -0.62355176601E+02  0.62355176601E+02  0.00000000000E+00 0.  1.
         25    2    1    2    0    0 -0.39279412162E+02 -0.91727451707E+02  0.53670346470E+03  0.56003787898E+03  0.12504007062E+03 0.  0.
          5    1    1    2  502    0  0.10478771853E+03 -0.48244421060E+02  0.13902227045E+03  0.18071323083E+03  0.47000000000E+01 0. -1.
         -5    1    3    3    0  503 -0.18952187960E+00 -0.46141813503E+02  0.44881015395E+02  0.64540672562E+02  0.47000000000E+01 0. -1.
          5    1    3    3  503    0 -0.39089890283E+02 -0.45585638205E+02  0.49182244930E+03  0.49549720642E+03  0.47000000000E+01 0. -1.
         -5    1    1    2    0  502 -0.65508306367E+02  0.13997187277E+03  0.17042191526E+03  0.23010689379E+03  0.47000000000E+01 0.  1.
<mgrwt>
<rscale>  0 0.23702693E+03</rscale>
<asrwt>0</asrwt>
<pdfrwt beam="1">  1        4 0.95931047E-02 0.27021745E+03</pdfrwt>
<pdfrwt beam="2">  1       -4 0.13976966E+00 0.27021745E+03</pdfrwt>
<totfact> 0.56840379E+01</totfact>
</mgrwt>
</event>
<event>
 7    1  0.1795883E-009  0.2736473E+03  0.7546771E-02  0.1121737E+00
          1   -1    0    0  501    0  0.00000000000E+00  0.00000000000E+00  0.45502695726E+03  0.45502695726E+03  0.00000000000E+00 0. -1.
         -1   -1    0    0    0  501 -0.00000000000E+00 -0.00000000000E+00 -0.15200181012E+03  0.15200181012E+03  0.00000000000E+00 0.  1.
         25    2    1    2    0    0  0.88798584084E+02  0.16348039254E+02 -0.48378912186E+02  0.16164391917E+03  0.12504315470E+03 0.  0.
          5    1    1    2  502    0 -0.12194032602E+03 -0.81462091423E+02  0.34126854782E+03  0.37147251201E+03  0.47000000000E+01 0. -1.
         -5    1    1    2    0  502  0.33141741939E+02  0.65114052169E+02  0.10135511509E+02  0.73912336198E+02  0.47000000000E+01 0.  1.
          5    1    3    3  503    0  0.92992308674E+02  0.57414583093E+02 -0.19672643127E+02  0.11114453073E+03  0.47000000000E+01 0.  1.
         -5    1    3    3    0  503 -0.41937245894E+01 -0.41066543839E+02 -0.28706269059E+02  0.50499388433E+02  0.47000000000E+01 0.  1.
<mgrwt>
<rscale>  0 0.23710389E+03</rscale>
<asrwt>0</asrwt>
<pdfrwt beam="1">  1        1 0.70004146E-01 0.27364731E+03</pdfrwt>
<pdfrwt beam="2">  1       -1 0.23384894E-01 0.27364731E+03</pdfrwt>
<totfact> 0.79931890E+02</totfact>
</mgrwt>
</event>
<event>
 6    1  0.1795883E-009  0.2603531E+03  0.7546771E-02  0.1106931E+00
         -2   -1    0    0    0  501 -0.00000000000E+00  0.00000000000E+00  0.13858575113E+03  0.13858575113E+03  0.00000000000E+00 0.  1.
          2   -1    0    0  501    0  0.00000000000E+00 -0.00000000000E+00 -0.12227758121E+03  0.12227758121E+03  0.00000000000E+00 0. -1.
          5    1    1    2  502    0 -0.16208448151E+02  0.28015029200E+02 -0.33225025899E+02  0.46621325577E+02  0.47000000000E+01 0. -1.
         -5    1    1    2    0  503  0.24341680297E+02 -0.28918151582E+02 -0.94201127090E+01  0.39237805928E+02  0.47000000000E+01 0.  1.
          5    1    1    2  503    0 -0.52862851800E+02 -0.26303453056E+02 -0.33942271652E+02  0.68268005303E+02  0.47000000000E+01 0. -1.
         -5    1    1    2    0  502  0.44729619654E+02  0.27206575438E+02  0.92895580175E+02  0.10673619554E+03  0.47000000000E+01 0.  1.
<mgrwt>
<rscale>  0 0.26035307E+03</rscale>
<asrwt>0</asrwt>
<pdfrwt beam="1">  1        2 0.18811936E-01 0.26035307E+03</pdfrwt>
<pdfrwt beam="2">  1       -2 0.21320885E-01 0.26035307E+03</pdfrwt>
<totfact> 0.55522806E+03</totfact>
</mgrwt>
</event>
<event>
 7    1  0.1795883E-009  0.2504549E+03  0.7546771E-02  0.1113883E+00
         -1   -1    0    0    0  501 -0.00000000000E+00  0.00000000000E+00  0.74874754200E+02  0.74874754200E+02  0.00000000000E+00 0.  1.
          1   -1    0    0  501    0  0.00000000000E+00 -0.00000000000E+00 -0.92016418829E+03  0.92016418829E+03  0.00000000000E+00 0. -1.
         25    2    1    2    0    0  0.17786592693E+03 -0.12440110575E+03 -0.26239128284E+03  0.36273522160E+03  0.12496292494E+03 0.  0.
          5    1    1    2  502    0 -0.85496885863E+02  0.27769085871E+02 -0.37064087239E+03  0.38141524079E+03  0.47000000000E+01 0. -1.
         -5    1    1    2    0  502 -0.92369041069E+02  0.96632019876E+02 -0.21225727886E+03  0.25088848010E+03  0.47000000000E+01 0.  1.
          5    1    3    3  503    0  0.13992738843E+03 -0.30380845521E+02 -0.11465913332E+03  0.18349789280E+03  0.47000000000E+01 0. -1.
         -5    1    3    3    0  503  0.37938538500E+02 -0.94020260225E+02 -0.14773214952E+03  0.17923732881E+03  0.47000000000E+01 0. -1.
<mgrwt>
<rscale>  0 0.24908650E+03</rscale>
<asrwt>0</asrwt>
<pdfrwt beam="1">  1        1 0.14156373E+00 0.25045490E+03</pdfrwt>
<pdfrwt beam="2">  1       -1 0.11519192E-01 0.25045490E+03</pdfrwt>
<totfact> 0.90207761E+02</totfact>
</mgrwt>
</event>
<event>
 7    1  0.1795883E-009  0.2030947E+03  0.7546771E-02  0.1154732E+00
          1   -1    0    0  501    0  0.00000000000E+00  0.00000000000E+00  0.37543852276E+03  0.37543852276E+03  0.00000000000E+00 0. -1.
         -1   -1    0    0    0  501 -0.00000000000E+00 -0.00000000000E+00 -0.96923179022E+02  0.96923179022E+02  0.00000000000E+00 0.  1.
         25    2    1    2    0    0 -0.15931198634E+03  0.14929187647E+02  0.10131182661E+03  0.22696154410E+03  0.12507704287E+03 0.  0.
          5    1    3    3  502    0 -0.63025624655E+02 -0.46222526723E+02  0.77849683773E+02  0.11041473907E+03  0.47000000000E+01 0.  1.
         -5    1    3    3    0  502 -0.96286361688E+02  0.61151714370E+02  0.23462142835E+02  0.11654680503E+03  0.47000000000E+01 0.  1.
          5    1    1    2  503    0  0.85820258205E+02 -0.33405837813E+02  0.11389516006E+03  0.14654441034E+03  0.47000000000E+01 0. -1.
         -5    1    1    2    0  503  0.73491728137E+02  0.18476650166E+02  0.63308357070E+02  0.98855747333E+02  0.47000000000E+01 0.  1.
<mgrwt>
<rscale>  0 0.19419407E+03</rscale>
<asrwt>0</asrwt>
<pdfrwt beam="1">  1        1 0.57759772E-01 0.20309470E+03</pdfrwt>
<pdfrwt beam="2">  1       -1 0.14911259E-01 0.20309470E+03</pdfrwt>
<totfact> 0.21134607E+03</totfact>
</mgrwt>
</event>
<event>
 7    1  0.1795883E-009  0.1060038E+04  0.7546771E-02  0.9806153E-01
         -1   -1    0    0    0  501 -0.00000000000E+00  0.00000000000E+00  0.44750719275E+03  0.44750719275E+03  0.00000000000E+00 0.  1.
          1   -1    0    0  501    0  0.00000000000E+00 -0.00000000000E+00 -0.86522860023E+03  0.86522860023E+03  0.00000000000E+00 0. -1.
         25    2    1    2    0    0 -0.83159222840E+02  0.50862501764E+01 -0.16477090747E+03  0.22293540358E+03  0.12493764819E+03 0.  0.
          5    1    1    2  502    0  0.28820331891E+03 -0.43310771351E+02 -0.61011589240E+03  0.67616600632E+03  0.47000000000E+01 0. -1.
         -5    1    3    3    0  503 -0.72308318357E+02  0.41873369164E+02 -0.16419158693E+03  0.18429009515E+03  0.47000000000E+01 0.  1.
          5    1    3    3  503    0 -0.10850904483E+02 -0.36787118987E+02 -0.57932053722E+00  0.38645308432E+02  0.47000000000E+01 0. -1.
         -5    1    1    2    0  502 -0.20504409607E+03  0.38224521174E+02  0.35716539239E+03  0.41363438309E+03  0.47000000000E+01 0.  1.
<mgrwt>
<rscale>  0 0.65033366E+03</rscale>
<asrwt>0</asrwt>
<pdfrwt beam="1">  1        1 0.13311209E+00 0.10600382E+04</pdfrwt>
<pdfrwt beam="2">  1       -1 0.68847262E-01 0.10600382E+04</pdfrwt>
<totfact> 0.41446741E+01</totfact>
</mgrwt>
</event>
<event>
 6    1  0.1795883E-009  0.3909969E+03  0.7546771E-02  0.1079936E+00
          2   -1    0    0  501    0  0.00000000000E+00  0.00000000000E+00  0.16612671909E+04  0.16612671909E+04  0.00000000000E+00 0. -1.
         -2   -1    0    0    0  501 -0.00000000000E+00 -0.00000000000E+00 -0.61604105621E+02  0.61604105621E+02  0.00000000000E+00 0.  1.
          5    1    1    2  502    0  0.32640563281E+02 -0.71038989073E+01  0.22177625167E+02  0.40370890615E+02  0.47000000000E+01 0. -1.
         -5    1    1    2    0  503 -0.11337230858E+03 -0.14825934095E+03  0.48151030229E+03  0.51643816062E+03  0.47000000000E+01 0.  1.
          5    1    1    2  503    0  0.16631453643E+03  0.68625834915E+02  0.98459571458E+03  0.10009100067E+04  0.47000000000E+01 0. -1.
         -5    1    1    2    0  502 -0.85582791129E+02  0.86737404938E+02  0.11137944327E+03  0.16515223866E+03  0.47000000000E+01 0.  1.
<mgrwt>
<rscale>  0 0.31085567E+03</rscale>
<asrwt>0</asrwt>
<pdfrwt beam="1">  1        2 0.25557953E+00 0.39099694E+03</pdfrwt>
<pdfrwt beam="2">  1       -2 0.94775560E-02 0.39099694E+03</pdfrwt>
<totfact> 0.80175335E+02</totfact>
</mgrwt>
</event>
<event>
 7    1  0.1795883E-009  0.1889707E+03  0.7546771E-02  0.1162360E+00
          1   -1    0    0  501    0  0.00000000000E+00  0.00000000000E+00  0.17787718025E+04  0.17787718025E+04  0.00000000000E+00 0. -1.
         -1   -1    0    0    0  501 -0.00000000000E+00 -0.00000000000E+00 -0.19149620681E+02  0.19149620681E+02  0.00000000000E+00 0.  1.
         25    2    1    2    0    0  0.96204173148E+02  0.78849295355E+02  0.97824796170E+03  0.99402117569E+03  0.12504626682E+03 0.  0.
          5    1    3    3  502    0  0.12491011347E+03  0.49315523416E+02  0.77932363295E+03  0.79082360370E+03  0.47000000000E+01 0. -1.
         -5    1    1    2    0  503  0.16596903804E+02 -0.69552718669E+02  0.22593289140E+03  0.23702489175E+03  0.47000000000E+01 0.  1.
          5    1    1    2  503    0 -0.11280107695E+03 -0.92965766864E+01  0.55544132868E+03  0.56687535570E+03  0.47000000000E+01 0. -1.
         -5    1    3    3    0  502 -0.28705940319E+02  0.29533771939E+02  0.19892432875E+03  0.20319757199E+03  0.47000000000E+01 0. -1.
<mgrwt>
<rscale>  0 0.18574054E+03</rscale>
<asrwt>0</asrwt>
<pdfrwt beam="1">  1        1 0.27365707E+00 0.18897073E+03</pdfrwt>
<pdfrwt beam="2">  1       -1 0.29460969E-02 0.18897073E+03</pdfrwt>
<totfact> 0.18238189E+03</totfact>
</mgrwt>
</event>
<event>
 6    1  0.1795883E-009  0.3477238E+03  0.7546771E-02  0.1101748E+00
         -2   -1    0    0    0  501 -0.00000000000E+00  0.00000000000E+00  0.33933460531E+02  0.33933460531E+02  0.00000000000E+00 0.  1.
          2   -1    0    0  501    0  0.00000000000E+00 -0.00000000000E+00 -0.19750359200E+04  0.19750359200E+04  0.00000000000E+00 0. -1.
          5    1    1    2  502    0 -0.19988970524E+03  0.12858003939E+02 -0.87968312314E+03  0.90221156591E+03  0.47000000000E+01 0. -1.
         -5    1    1    2    0  502  0.83848105880E+02 -0.44961297949E+02 -0.14117403677E+03  0.17030625893E+03  0.47000000000E+01 0.  1.
          5    1    1    2  503    0 -0.20277224574E+02 -0.14198401390E+02 -0.77739903206E+02  0.81721129391E+02  0.47000000000E+01 0. -1.
         -5    1    1    2    0  503  0.13631882394E+03  0.46301695401E+02 -0.84250539637E+03  0.85473042632E+03  0.47000000000E+01 0.  1.
<mgrwt>
<rscale>  0 0.26918277E+03</rscale>
<asrwt>0</asrwt>
<pdfrwt beam="1">  1        2 0.30385174E+00 0.34772384E+03</pdfrwt>
<pdfrwt beam="2">  1       -2 0.52205313E-02 0.34772384E+03</pdfrwt>
<totfact> 0.13944724E+03</totfact>
</mgrwt>
</event>
<event>
 7    1  0.1795883E-009  0.3156466E+03  0.7546771E-02  0.1077670E+00
          1   -1    0    0  501    0  0.00000000000E+00  0.00000000000E+00  0.48629214028E+03  0.48629214028E+03  0.00000000000E+00 0.  1.
         -1   -1    0    0    0  501 -0.00000000000E+00 -0.00000000000E+00 -0.51220654766E+02  0.51220654766E+02  0.00000000000E+00 0. -1.
         25    2    1    2    0    0 -0.71453121679E+02 -0.37080424606E+02  0.21757155948E+03  0.26354657106E+03  0.12505560819E+03 0.  0.
          5    1    3    3  502    0 -0.29636271177E+02  0.22258198101E+02  0.35840539233E+01  0.37532271374E+02  0.47000000000E+01 0. -1.
         -5    1    3    3    0  502 -0.41816850502E+02 -0.59338622706E+02  0.21398750556E+03  0.22601429969E+03  0.47000000000E+01 0. -1.
          5    1    1    2  503    0  0.92443083793E+02  0.27809642126E+02  0.57919236839E+02  0.11267576462E+03  0.47000000000E+01 0. -1.
         -5    1    1    2    0  503 -0.20989962114E+02  0.92707824798E+01  0.15958068920E+03  0.16129045936E+03  0.47000000000E+01 0.  1.
<mgrwt>
<rscale>  0 0.31564665E+03</rscale>
<asrwt>0</asrwt>
<pdfrwt beam="1">  1        1 0.74814172E-01 0.31564665E+03</pdfrwt>
<pdfrwt beam="2">  1       -1 0.78801011E-02 0.31564665E+03</pdfrwt>
<totfact> 0.41319137E+03</totfact>
</mgrwt>
</event>
<event>
 7    1  0.1795883E-009  0.1967782E+03  0.7546771E-02  0.1155692E+00
          2   -1    0    0  501    0  0.00000000000E+00  0.00000000000E+00  0.51769585793E+03  0.51769585793E+03  0.00000000000E+00 0. -1.
         -2   -1    0    0    0  501 -0.00000000000E+00 -0.00000000000E+00 -0.69531089138E+02  0.69531089138E+02  0.00000000000E+00 0.  1.
         25    2    1    2    0    0 -0.11873824111E+03 -0.94902127361E+02  0.22322723560E+03  0.29757696039E+03  0.12496585518E+03 0.  0.
          5    1    3    3  502    0 -0.30138277608E+02  0.97702130356E+01  0.12444901234E+03  0.12850455055E+03  0.47000000000E+01 0.  1.
         -5    1    3    3    0  502 -0.88599963504E+02 -0.10467234040E+03  0.98778223256E+02  0.16907240983E+03  0.47000000000E+01 0.  1.
          5    1    1    2  503    0  0.59709443211E+02  0.10640671516E+03  0.14717822508E+03  0.19123578791E+03  0.47000000000E+01 0. -1.
         -5    1    1    2    0  503  0.59028797900E+02 -0.11504587797E+02  0.77759308110E+02  0.98414198771E+02  0.47000000000E+01 0.  1.
<mgrwt>
<rscale>  0 0.19310280E+03</rscale>
<asrwt>0</asrwt>
<pdfrwt beam="1">  1        2 0.79645514E-01 0.19677817E+03</pdfrwt>
<pdfrwt beam="2">  1       -2 0.10697091E-01 0.19677817E+03</pdfrwt>
<totfact> 0.35121308E+03</totfact>
</mgrwt>
</event>
<event>
 7    1  0.1795883E-009  0.1843000E+03  0.7546771E-02  0.1163893E+00
         -2   -1    0    0    0  501 -0.00000000000E+00  0.00000000000E+00  0.40371392743E+02  0.40371392743E+02  0.00000000000E+00 0.  1.
          2   -1    0    0  501    0  0.00000000000E+00 -0.00000000000E+00 -0.11976102609E+04  0.11976102609E+04  0.00000000000E+00 0. -1.
         25    2    1    2    0    0  0.12653649324E+03  0.44921054920E+02 -0.23841091887E+03  0.30085236885E+03  0.12507196453E+03 0.  0.
          5    1    3    3  502    0  0.15095685486E+02  0.45693454069E+02 -0.15272884206E+03  0.16019975238E+03  0.47000000000E+01 0. -1.
         -5    1    3    3    0  502  0.11144080776E+03 -0.77239914869E+00 -0.85682076801E+02  0.14065261647E+03  0.47000000000E+01 0. -1.
          5    1    1    2  503    0 -0.13881401542E+03 -0.70311385048E+02 -0.78245450096E+03  0.79779079828E+03  0.47000000000E+01 0. -1.
         -5    1    1    2    0  503  0.12277522175E+02  0.25390330128E+02 -0.13637344829E+03  0.13933848648E+03  0.47000000000E+01 0.  1.
<mgrwt>
<rscale>  0 0.18409978E+03</rscale>
<asrwt>0</asrwt>
<pdfrwt beam="1">  1        2 0.18424774E+00 0.18430002E+03</pdfrwt>
<pdfrwt beam="2">  1       -2 0.62109833E-02 0.18430002E+03</pdfrwt>
<totfact> 0.27989558E+03</totfact>
</mgrwt>
</event>
<event>
 6    1  0.1795883E-009  0.3465570E+03  0.7546771E-02  0.1064037E+00
          1   -1    0    0  501    0  0.00000000000E+00  0.00000000000E+00  0.12740439992E+03  0.12740439992E+03  0.00000000000E+00 0. -1.
         -1   -1    0    0    0  501 -0.00000000000E+00 -0.00000000000E+00 -0.23567032909E+03  0.23567032909E+03  0.00000000000E+00 0.  1.
          5    1    1    2  502    0 -0.12102247466E+02  0.70497575985E+02  0.55200746151E+02  0.90474222788E+02  0.47000000000E+01 0. -1.
         -5    1    1    2    0  503  0.11206438936E+02 -0.13019802733E+03 -0.14745915417E+03  0.19708729726E+03  0.47000000000E+01 0. -1.
          5    1    1    2  503    0  0.14897612564E+02  0.27721320380E+02 -0.23429045178E+02  0.39514815217E+02  0.47000000000E+01 0. -1.
         -5    1    1    2    0  502 -0.14001804034E+02  0.31979130964E+02  0.74215240188E+01  0.35998393745E+02  0.47000000000E+01 0.  1.
<mgrwt>
<rscale>  0 0.34655699E+03</rscale>
<asrwt>0</asrwt>
<pdfrwt beam="1">  1        1 0.19600677E-01 0.34655699E+03</pdfrwt>
<pdfrwt beam="2">  1       -1 0.36256974E-01 0.34655699E+03</pdfrwt>
<totfact> 0.19335253E+03</totfact>
</mgrwt>
</event>
<event>
 7    1  0.1795883E-009  0.2163287E+03  0.7546771E-02  0.1155217E+00
         -2   -1    0    0    0  501 -0.00000000000E+00  0.00000000000E+00  0.13849753986E+03  0.13849753986E+03  0.00000000000E+00 0. -1.
          2   -1    0    0  501    0  0.00000000000E+00 -0.00000000000E+00 -0.22784037118E+03  0.22784037118E+03  0.00000000000E+00 0.  1.
         25    2    1    2    0    0  0.41253187545E+02 -0.44491773320E+02 -0.38312756451E+02  0.14407190368E+03  0.12492999138E+03 0.  0.
          5    1    1    2  502    0 -0.51389304778E+02 -0.77834400222E+02 -0.18592592315E+02  0.95219898091E+02  0.47000000000E+01 0. -1.
         -5    1    3    3    0  503 -0.44704340237E+02 -0.14490895452E+02 -0.73723733993E+01  0.47800690127E+02  0.47000000000E+01 0. -1.
          5    1    3    3  503    0  0.85957527782E+02 -0.30000877869E+02 -0.30940383052E+02  0.96271213552E+02  0.47000000000E+01 0. -1.
         -5    1    1    2    0  502  0.10136117234E+02  0.12232617354E+03 -0.32437482555E+02  0.12704610927E+03  0.47000000000E+01 0.  1.
<mgrwt>
<rscale>  0 0.19364170E+03</rscale>
<asrwt>0</asrwt>
<pdfrwt beam="1">  1        2 0.35052365E-01 0.21632871E+03</pdfrwt>
<pdfrwt beam="2">  1       -2 0.21307314E-01 0.21632871E+03</pdfrwt>
<totfact> 0.27471643E+03</totfact>
</mgrwt>
</event>
<event>
 7    1  0.1795883E-009  0.1447323E+03  0.7546771E-02  0.1210260E+00
          1   -1    0    0  501    0  0.00000000000E+00  0.00000000000E+00  0.13489046562E+03  0.13489046562E+03  0.00000000000E+00 0. -1.
         -1   -1    0    0    0  501 -0.00000000000E+00 -0.00000000000E+00 -0.16751059143E+03  0.16751059143E+03  0.00000000000E+00 0.  1.
         25    2    1    2    0    0 -0.12057173281E+02  0.50391128625E+02 -0.70858451601E+02  0.15270264544E+03  0.12495013602E+03 0.  0.
          5    1    3    3  502    0  0.43193654091E+02  0.15764197273E+02  0.11424470626E+02  0.47611030219E+02  0.47000000000E+01 0. -1.
         -5    1    1    2    0  503 -0.55368374419E+02  0.65523029871E+01  0.94222204399E+01  0.56740266110E+02  0.47000000000E+01 0.  1.
          5    1    1    2  503    0  0.67425547701E+02 -0.56943431612E+02  0.28816105354E+02  0.92958145497E+02  0.47000000000E+01 0. -1.
         -5    1    3    3    0  502 -0.55250827372E+02  0.34626931352E+02 -0.82282922227E+02  0.10509161522E+03  0.47000000000E+01 0. -1.
<mgrwt>
<rscale>  0 0.14230566E+03</rscale>
<asrwt>0</asrwt>
<pdfrwt beam="1">  1        1 0.20752379E-01 0.14473232E+03</pdfrwt>
<pdfrwt beam="2">  1       -1 0.25770860E-01 0.14473232E+03</pdfrwt>
<totfact> 0.31176880E+03</totfact>
</mgrwt>
</event>
<event>
 7    1  0.2331713E-009  0.8166684E+03  0.7546771E-02  0.9824530E-01
         -2   -1    0    0    0  501 -0.00000000000E+00  0.00000000000E+00  0.26188548002E+03  0.26188548002E+03  0.00000000000E+00 0.  1.
          2   -1    0    0  501    0  0.00000000000E+00 -0.00000000000E+00 -0.13606649071E+04  0.13606649071E+04  0.00000000000E+00 0. -1.
         25    2    1    2    0    0 -0.28060903903E+03 -0.35575861092E+02 -0.57344659922E+03  0.65150875049E+03  0.12496229481E+03 0.  0.
          5    1    1    2  502    0  0.49557712884E+02 -0.33738976264E+03 -0.37585039390E+03  0.50751692330E+03  0.47000000000E+01 0. -1.
         -5    1    1    2    0  502  0.23105132615E+03  0.37296562373E+03 -0.14948243395E+03  0.46352471332E+03  0.47000000000E+01 0.  1.
          5    1    3    3  503    0 -0.66400043904E+02 -0.59129320598E+01 -0.45164127296E+02  0.80658644859E+02  0.47000000000E+01 0.  1.
         -5    1    3    3    0  503 -0.21420899513E+03 -0.29662929032E+02 -0.52828247193E+03  0.57085010563E+03  0.47000000000E+01 0.  1.
<mgrwt>
<rscale>  0 0.64062578E+03</rscale>
<asrwt>0</asrwt>
<pdfrwt beam="1">  1        2 0.20933307E+00 0.81666840E+03</pdfrwt>
<pdfrwt beam="2">  1       -2 0.40290073E-01 0.81666840E+03</pdfrwt>
<totfact> 0.89913306E+01</totfact>
</mgrwt>
</event>
<event>
 6    1  0.1795883E-009  0.1156608E+03  0.7546771E-02  0.1262240E+00
         -2   -1    0    0    0  501 -0.00000000000E+00  0.00000000000E+00  0.52669574572E+02  0.52669574572E+02  0.00000000000E+00 0. -1.
          2   -1    0    0  501    0  0.00000000000E+00 -0.00000000000E+00 -0.32197322874E+03  0.32197322874E+03  0.00000000000E+00 0.  1.
          5    1    1    2  502    0 -0.44092566757E+02 -0.18286502456E+02 -0.14177785397E+03  0.14967164225E+03  0.47000000000E+01 0.  1.
         -5    1    1    2    0  502 -0.42269501412E+01  0.67654634583E+02 -0.31829490096E+02  0.75034812772E+02  0.47000000000E+01 0.  1.
          5    1    1    2  503    0  0.60391593448E+01 -0.44203433977E+02  0.24277525680E+00  0.44861608986E+02  0.47000000000E+01 0. -1.
         -5    1    1    2    0  503  0.42280357554E+02 -0.51646981498E+01 -0.95939085359E+02  0.10507473931E+03  0.47000000000E+01 0.  1.
<mgrwt>
<rscale>  0 0.10910297E+03</rscale>
<asrwt>0</asrwt>
<pdfrwt beam="1">  1        2 0.49534344E-01 0.11566085E+03</pdfrwt>
<pdfrwt beam="2">  1       -2 0.81030113E-02 0.11566085E+03</pdfrwt>
<totfact> 0.87984751E+03</totfact>
</mgrwt>
</event>
<event>
 6    1  0.1795883E-009  0.1625871E+03  0.7546771E-02  0.1202317E+00
         -1   -1    0    0    0  501 -0.00000000000E+00  0.00000000000E+00  0.88875207137E+02  0.88875207137E+02  0.00000000000E+00 0.  1.
          1   -1    0    0  501    0  0.00000000000E+00 -0.00000000000E+00 -0.23221960687E+03  0.23221960687E+03  0.00000000000E+00 0. -1.
          5    1    1    2  502    0 -0.45913362792E+02  0.46735670703E+02 -0.14281205443E+02  0.67218320627E+02  0.47000000000E+01 0. -1.
         -5    1    1    2    0  503  0.61090357709E+02 -0.24945402786E+02 -0.64024795042E+01  0.66463423542E+02  0.47000000000E+01 0.  1.
          5    1    1    2  503    0 -0.15150072255E+02 -0.68545257075E+02 -0.12150897144E+03  0.14040832275E+03  0.47000000000E+01 0.  1.
         -5    1    1    2    0  502 -0.26922661383E-01  0.46754989158E+02 -0.11517433438E+01  0.47004747087E+02  0.47000000000E+01 0.  1.
<mgrwt>
<rscale>  0 0.14850905E+03</rscale>
<asrwt>0</asrwt>
<pdfrwt beam="1">  1        1 0.35726094E-01 0.16258715E+03</pdfrwt>
<pdfrwt beam="2">  1       -1 0.13673109E-01 0.16258715E+03</pdfrwt>
<totfact> 0.43812016E+03</totfact>
</mgrwt>
</event>
<event>
 6    1  0.1795883E-009  0.2154750E+03  0.7546771E-02  0.1137302E+00
          4   -1    0    0  501    0  0.00000000000E+00  0.00000000000E+00  0.32829816242E+03  0.32829816242E+03  0.00000000000E+00 0. -1.
         -4   -1    0    0    0  501 -0.00000000000E+00 -0.00000000000E+00 -0.35356193098E+02  0.35356193098E+02  0.00000000000E+00 0.  1.
          5    1    1    2  502    0 -0.21068818867E+02  0.11183276392E+02  0.38706826541E+02  0.45708524590E+02  0.47000000000E+01 0. -1.
         -5    1    1    2    0  502  0.39605731555E+02 -0.44572090900E+02  0.80499257957E+02  0.10028711677E+03  0.47000000000E+01 0.  1.
          5    1    1    2  503    0 -0.62336190566E+02  0.55669457582E+01  0.14536333474E+03  0.15833313180E+03  0.47000000000E+01 0. -1.
         -5    1    1    2    0  503  0.43799277879E+02  0.27821868750E+02  0.28372550087E+02  0.59325582356E+02  0.47000000000E+01 0.  1.
<mgrwt>
<rscale>  0 0.21547504E+03</rscale>
<asrwt>0</asrwt>
<pdfrwt beam="1">  1        4 0.50507408E-01 0.21547504E+03</pdfrwt>
<pdfrwt beam="2">  1       -4 0.54394145E-02 0.21547504E+03</pdfrwt>
<totfact> 0.14305003E+03</totfact>
</mgrwt>
</event>
<event>
 7    1  0.1795883E-009  0.3405405E+03  0.7546771E-02  0.1087041E+00
         -1   -1    0    0    0  501 -0.00000000000E+00  0.00000000000E+00  0.17425364995E+03  0.17425364995E+03  0.00000000000E+00 0.  1.
          1   -1    0    0  501    0  0.00000000000E+00 -0.00000000000E+00 -0.49291502335E+03  0.49291502335E+03  0.00000000000E+00 0. -1.
         25    2    1    2    0    0 -0.13344685251E+03  0.69371998938E+02  0.74731828478E+01  0.19564817312E+03  0.12490725559E+03 0.  0.
          5    1    3    3  502    0 -0.54612521484E+02  0.95547568297E+02 -0.10090147601E+02  0.11061539852E+03  0.47000000000E+01 0. -1.
         -5    1    1    2    0  503  0.29288512310E+02 -0.14286713310E+03 -0.29842220273E+02  0.14893449159E+03  0.47000000000E+01 0.  1.
          5    1    1    2  503    0  0.10415834020E+03  0.73495134164E+02 -0.29629233598E+03  0.32258600859E+03  0.47000000000E+01 0. -1.
         -5    1    3    3    0  502 -0.78834331027E+02 -0.26175569358E+02  0.17563330449E+02  0.85032774600E+02  0.47000000000E+01 0. -1.
<mgrwt>
<rscale>  0 0.29642598E+03</rscale>
<asrwt>0</asrwt>
<pdfrwt beam="1">  1        1 0.75833080E-01 0.34054050E+03</pdfrwt>
<pdfrwt beam="2">  1       -1 0.26808254E-01 0.34054050E+03</pdfrwt>
<totfact> 0.57098972E+02</totfact>
</mgrwt>
</event>
<event>
 7    1  0.1795883E-009  0.3265191E+03  0.7546771E-02  0.1089946E+00
          1   -1    0    0  501    0  0.00000000000E+00  0.00000000000E+00  0.11811163157E+04  0.11811163157E+04  0.00000000000E+00 0. -1.
         -1   -1    0    0    0  501 -0.00000000000E+00 -0.00000000000E+00 -0.60286262157E+02  0.60286262157E+02  0.00000000000E+00 0.  1.
         25    2    1    2    0    0 -0.16270595718E+03 -0.91897805644E+01  0.48344944060E+03  0.52525401394E+03  0.12494293487E+03 0.  0.
          5    1    3    3  502    0 -0.19048664533E+02 -0.48607839883E+02  0.17503369047E+03  0.18271413880E+03  0.47000000000E+01 0.  1.
         -5    1    1    2    0  503  0.12938883742E+03 -0.94289575605E+02  0.15951561527E+03  0.22605158002E+03  0.47000000000E+01 0.  1.
          5    1    1    2  503    0  0.33317119763E+02  0.10347935617E+03  0.47786499769E+03  0.49009698391E+03  0.47000000000E+01 0. -1.
         -5    1    3    3    0  502 -0.14365729265E+03  0.39418059319E+02  0.30841575013E+03  0.34253987514E+03  0.47000000000E+01 0.  1.
<mgrwt>
<rscale>  0 0.29077352E+03</rscale>
<asrwt>0</asrwt>
<pdfrwt beam="1">  1        1 0.18171019E+00 0.32651910E+03</pdfrwt>
<pdfrwt beam="2">  1       -1 0.92748104E-02 0.32651910E+03</pdfrwt>
<totfact> 0.80768857E+02</totfact>
</mgrwt>
</event>
<event>
 6    1  0.1795883E-009  0.8348387E+03  0.7546771E-02  0.9510915E-01
         -2   -1    0    0    0  501 -0.00000000000E+00  0.00000000000E+00  0.15612368188E+03  0.15612368188E+03  0.00000000000E+00 0. -1.
          2   -1    0    0  501    0  0.00000000000E+00 -0.00000000000E+00 -0.11160314189E+04  0.11160314189E+04  0.00000000000E+00 0.  1.
          5    1    1    2  502    0 -0.10931467383E+03 -0.27373455120E+03 -0.83312637018E+03  0.88374314206E+03  0.47000000000E+01 0. -1.
         -5    1    1    2    0  502  0.40953069969E+02  0.87824035848E+02 -0.11961663438E+03  0.15401442930E+03  0.47000000000E+01 0.  1.
          5    1    1    2  503    0  0.37052155325E+02  0.19671898667E+03 -0.12015449787E+02  0.20059332732E+03  0.47000000000E+01 0. -1.
         -5    1    1    2    0  503  0.31309448540E+02 -0.10808471321E+02  0.48507173340E+01  0.33804202088E+02  0.47000000000E+01 0. -1.
<mgrwt>
<rscale>  0 0.83483875E+03</rscale>
<asrwt>0</asrwt>
<pdfrwt beam="1">  1        2 0.17169713E+00 0.83483875E+03</pdfrwt>
<pdfrwt beam="2">  1       -2 0.24019029E-01 0.83483875E+03</pdfrwt>
<totfact> 0.32948468E+02</totfact>
</mgrwt>
</event>
<event>
 7    1  0.1795883E-009  0.1919381E+03  0.7546771E-02  0.1162115E+00
          2   -1    0    0  501    0  0.00000000000E+00  0.00000000000E+00  0.27019841987E+03  0.27019841987E+03  0.00000000000E+00 0. -1.
         -2   -1    0    0    0  501 -0.00000000000E+00 -0.00000000000E+00 -0.12097641883E+03  0.12097641883E+03  0.00000000000E+00 0.  1.
         25    2    1    2    0    0  0.15101494391E+02  0.14483073506E+03  0.70425424441E+02  0.20445039084E+03  0.12504489177E+03 0.  0.
          5    1    1    2  502    0  0.22393879306E+02 -0.10111581841E+02  0.28784706203E+02  0.38136324271E+02  0.47000000000E+01 0. -1.
         -5    1    3    3    0  503  0.24314176314E+02 -0.26615913962E+00 -0.21143822534E+02  0.32563802632E+02  0.47000000000E+01 0.  1.
          5    1    3    3  503    0 -0.92126819230E+01  0.14509689420E+03  0.91569246975E+02  0.17188658821E+03  0.47000000000E+01 0.  1.
         -5    1    1    2    0  502 -0.37495373697E+02 -0.13471915322E+03  0.50011870394E+02  0.14858812359E+03  0.47000000000E+01 0.  1.
<mgrwt>
<rscale>  0 0.18600512E+03</rscale>
<asrwt>0</asrwt>
<pdfrwt beam="1">  1        2 0.41568988E-01 0.19193807E+03</pdfrwt>
<pdfrwt beam="2">  1       -2 0.18611757E-01 0.19193807E+03</pdfrwt>
<totfact> 0.28659219E+03</totfact>
</mgrwt>
</event>
<event>
 7    1  0.1795883E-009  0.1770315E+03  0.7546771E-02  0.1175554E+00
         -1   -1    0    0    0  501 -0.00000000000E+00  0.00000000000E+00  0.26809236734E+03  0.26809236734E+03  0.00000000000E+00 0.  1.
          1   -1    0    0  501    0  0.00000000000E+00 -0.00000000000E+00 -0.12284653017E+03  0.12284653017E+03  0.00000000000E+00 0. -1.
         25    2    1    2    0    0 -0.14362534754E+02 -0.12449775138E+03  0.15041481692E+03  0.23230316746E+03  0.12503668246E+03 0.  0.
          5    1    1    2  502    0 -0.19008973470E+02  0.10468295119E+03 -0.32020408568E+02  0.11120817374E+03  0.47000000000E+01 0. -1.
         -5    1    1    2    0  502  0.33371508224E+02  0.19814800199E+02  0.26851428827E+02  0.47427556316E+02  0.47000000000E+01 0.  1.
          5    1    3    3  503    0 -0.35610508223E+02 -0.92545580233E+02  0.26859649112E+02  0.10284125372E+03  0.47000000000E+01 0.  1.
         -5    1    3    3    0  503  0.21247973469E+02 -0.31952171151E+02  0.12355516780E+03  0.12946191374E+03  0.47000000000E+01 0.  1.
<mgrwt>
<rscale>  0 0.17221876E+03</rscale>
<asrwt>0</asrwt>
<pdfrwt beam="1">  1        1 0.18899466E-01 0.17703148E+03</pdfrwt>
<pdfrwt beam="2">  1       -1 0.41244979E-01 0.17703148E+03</pdfrwt>
<totfact> 0.15860940E+03</totfact>
</mgrwt>
</event>
<event>
 7    1  0.1795883E-009  0.3847225E+03  0.7546771E-02  0.1052207E+00
         -1   -1    0    0    0  501 -0.00000000000E+00  0.00000000000E+00  0.83553169899E+02  0.83553169899E+02  0.00000000000E+00 0.  1.
          1   -1    0    0  501    0  0.00000000000E+00 -0.00000000000E+00 -0.17123804389E+04  0.17123804389E+04  0.00000000000E+00 0. -1.
         25    2    1    2    0    0 -0.28114776717E+03  0.17330227617E+03 -0.58336789054E+03  0.68193328535E+03  0.12504864671E+03 0.  0.
          5    1    3    3  502    0 -0.11766876520E+03  0.53988145723E+01 -0.21831227046E+03  0.24810768415E+03  0.47000000000E+01 0.  1.
         -5    1    1    2    0  503  0.26093900577E+03 -0.87191318539E+02 -0.60373562954E+03  0.66348345205E+03  0.47000000000E+01 0.  1.
          5    1    1    2  503    0  0.20208761404E+02 -0.86110957629E+02 -0.44172374891E+03  0.45051687140E+03  0.47000000000E+01 0. -1.
         -5    1    3    3    0  502 -0.16347900197E+03  0.16790346160E+03 -0.36505562008E+03  0.43382560120E+03  0.47000000000E+01 0.  1.
<mgrwt>
<rscale>  0 0.37657414E+03</rscale>
<asrwt>0</asrwt>
<pdfrwt beam="1">  1        1 0.26344315E+00 0.38472251E+03</pdfrwt>
<pdfrwt beam="2">  1       -1 0.12854334E-01 0.38472251E+03</pdfrwt>
<totfact> 0.20991932E+02</totfact>
</mgrwt>
</event>
<event>
 7    1  0.2028155E-009  0.1976896E+03  0.7546771E-02  0.1160464E+00
          2   -1    0    0  501    0  0.00000000000E+00  0.00000000000E+00  0.36310716305E+03  0.36310716305E+03  0.00000000000E+00 0. -1.
         -2   -1    0    0    0  501 -0.00000000000E+00 -0.00000000000E+00 -0.11956200647E+03  0.11956200647E+03  0.00000000000E+00 0.  1.
         25    2    1    2    0    0  0.41718268113E+02  0.14740233360E+03  0.25338414155E+03  0.32137935558E+03  0.12495321188E+03 0.  0.
          5    1    1    2  502    0 -0.30361583901E+02 -0.60698739880E+02  0.16193347042E+02  0.69931947552E+02  0.47000000000E+01 0. -1.
         -5    1    1    2    0  502 -0.11356684212E+02 -0.86703593716E+02 -0.26032332021E+02  0.91357866383E+02  0.47000000000E+01 0.  1.
          5    1    3    3  503    0 -0.25658992020E+02  0.12317774320E+03  0.16390531223E+03  0.20668377215E+03  0.47000000000E+01 0. -1.
         -5    1    3    3    0  503  0.67377260133E+02  0.24224590399E+02  0.89478829322E+02  0.11469558344E+03  0.47000000000E+01 0. -1.
<mgrwt>
<rscale>  0 0.18779636E+03</rscale>
<asrwt>0</asrwt>
<pdfrwt beam="1">  1        2 0.55862640E-01 0.19768957E+03</pdfrwt>
<pdfrwt beam="2">  1       -2 0.18394155E-01 0.19768957E+03</pdfrwt>
<totfact> 0.21309937E+03</totfact>
</mgrwt>
</event>
<event>
 7    1  0.1795883E-009  0.1583224E+03  0.7546771E-02  0.1201353E+00
          2   -1    0    0  501    0  0.00000000000E+00  0.00000000000E+00  0.15665378625E+03  0.15665378625E+03  0.00000000000E+00 0. -1.
         -2   -1    0    0    0  501 -0.00000000000E+00 -0.00000000000E+00 -0.14961502733E+03  0.14961502733E+03  0.00000000000E+00 0.  1.
         25    2    1    2    0    0  0.72547176200E+02  0.64729891227E+02  0.61406931403E+02  0.16981395085E+03  0.12495165100E+03 0.  0.
          5    1    1    2  502    0 -0.47272566367E+02 -0.70913470008E+02 -0.11553425350E+02  0.86133543970E+02  0.47000000000E+01 0. -1.
         -5    1    3    3    0  503 -0.23750010539E+02 -0.72115097113E+01 -0.12955862780E+02  0.28390372546E+02  0.47000000000E+01 0. -1.
          5    1    3    3  503    0  0.96297186739E+02  0.71941400939E+02  0.74362794183E+02  0.14142357831E+03  0.47000000000E+01 0. -1.
         -5    1    1    2    0  502 -0.25274609832E+02  0.61835787811E+01 -0.42814747131E+02  0.50321318748E+02  0.47000000000E+01 0.  1.
<mgrwt>
<rscale>  0 0.14928618E+03</rscale>
<asrwt>0</asrwt>
<pdfrwt beam="1">  1        2 0.24100583E-01 0.15832235E+03</pdfrwt>
<pdfrwt beam="2">  1       -2 0.23017696E-01 0.15832235E+03</pdfrwt>
<totfact> 0.35765013E+03</totfact>
</mgrwt>
</event>
<event>
 6    1  0.1795883E-009  0.3308677E+03  0.7546771E-02  0.1070754E+00
         -2   -1    0    0    0  501 -0.00000000000E+00  0.00000000000E+00  0.90414798315E+02  0.90414798315E+02  0.00000000000E+00 0.  1.
          2   -1    0    0  501    0  0.00000000000E+00 -0.00000000000E+00 -0.30269786953E+03  0.30269786953E+03  0.00000000000E+00 0. -1.
          5    1    1    2  502    0 -0.41122907490E+02  0.33850844526E+02 -0.10299965369E+02  0.54453213699E+02  0.47000000000E+01 0. -1.
         -5    1    1    2    0  503  0.80226655119E+02 -0.87463099453E+02 -0.20226001086E+03  0.23455769429E+03  0.47000000000E+01 0. -1.
          5    1    1    2  503    0  0.36088387449E+01  0.35992296563E+02 -0.31197755140E+02  0.47998531797E+02  0.47000000000E+01 0. -1.
         -5    1    1    2    0  502 -0.42712586374E+02  0.17619958364E+02  0.31474660150E+02  0.56103228062E+02  0.47000000000E+01 0.  1.
<mgrwt>
<rscale>  0 0.33086775E+03</rscale>
<asrwt>0</asrwt>
<pdfrwt beam="1">  1        2 0.46568903E-01 0.33086775E+03</pdfrwt>
<pdfrwt beam="2">  1       -2 0.13909969E-01 0.33086775E+03</pdfrwt>
<totfact> 0.42077274E+03</totfact>
</mgrwt>
</event>
<event>
 6    1  0.1795883E-009  0.2582126E+03  0.7546771E-02  0.1108222E+00
          1   -1    0    0  501    0  0.00000000000E+00  0.00000000000E+00  0.19153913611E+03  0.19153913611E+03  0.00000000000E+00 0. -1.
         -1   -1    0    0    0  501 -0.00000000000E+00 -0.00000000000E+00 -0.87023679228E+02  0.87023679228E+02  0.00000000000E+00 0.  1.
          5    1    1    2  502    0  0.50428047551E+02  0.26764251102E+02  0.11993643027E+03  0.13291407157E+03  0.47000000000E+01 0. -1.
         -5    1    1    2    0  502 -0.44072174593E+02 -0.11909649492E+02  0.79854653223E+01  0.46583838193E+02  0.47000000000E+01 0.  1.
          5    1    1    2  503    0  0.10913980041E+02 -0.27616895081E+02  0.29286017171E+02  0.41971045447E+02  0.47000000000E+01 0. -1.
         -5    1    1    2    0  503 -0.17269852998E+02  0.12762293470E+02 -0.52692455879E+02  0.57093860123E+02  0.47000000000E+01 0.  1.
<mgrwt>
<rscale>  0 0.25821263E+03</rscale>
<asrwt>0</asrwt>
<pdfrwt beam="1">  1        1 0.29467559E-01 0.25821263E+03</pdfrwt>
<pdfrwt beam="2">  1       -1 0.13388258E-01 0.25821263E+03</pdfrwt>
<totfact> 0.59057868E+03</totfact>
</mgrwt>
</event>
<event>
 6    1  0.1795883E-009  0.1337221E+03  0.7546771E-02  0.1225702E+00
         -2   -1    0    0    0  501 -0.00000000000E+00  0.00000000000E+00  0.23265041181E+02  0.23265041181E+02  0.00000000000E+00 0.  1.
          2   -1    0    0  501    0  0.00000000000E+00 -0.00000000000E+00 -0.82412053109E+03  0.82412053109E+03  0.00000000000E+00 0. -1.
          5    1    1    2  502    0  0.27288910150E+02 -0.12859606979E+02 -0.10692678732E+02  0.32349304278E+02  0.47000000000E+01 0. -1.
         -5    1    1    2    0  503 -0.24299869544E+02 -0.27071656571E+02 -0.17169204432E+03  0.17556652964E+03  0.47000000000E+01 0.  1.
          5    1    1    2  503    0  0.70317455250E+02  0.51158988169E+02 -0.37093977094E+03  0.38102518322E+03  0.47000000000E+01 0. -1.
         -5    1    1    2    0  502 -0.73306495856E+02 -0.11227724618E+02 -0.24753099592E+03  0.25844455513E+03  0.47000000000E+01 0.  1.
<mgrwt>
<rscale>  0 0.13118931E+03</rscale>
<asrwt>0</asrwt>
<pdfrwt beam="1">  1        2 0.12678778E+00 0.13372211E+03</pdfrwt>
<pdfrwt beam="2">  1       -2 0.35792369E-02 0.13372211E+03</pdfrwt>
<totfact> 0.10636876E+04</totfact>
</mgrwt>
</event>
<event>
 7    1  0.1795883E-009  0.1041569E+04  0.7546771E-02  0.9264092E-01
          1   -1    0    0  501    0  0.00000000000E+00  0.00000000000E+00  0.24957135469E+04  0.24957135469E+04  0.00000000000E+00 0. -1.
         -1   -1    0    0    0  501 -0.00000000000E+00 -0.00000000000E+00 -0.10867299112E+03  0.10867299112E+03  0.00000000000E+00 0.  1.
         25    2    1    2    0    0 -0.11218971362E+03 -0.40590588748E+03  0.85466896279E+03  0.96095700515E+03  0.12503282956E+03 0.  0.
          5    1    3    3  502    0 -0.49572961447E+01 -0.69810161192E+02  0.63225696157E+02  0.94433108840E+02  0.47000000000E+01 0. -1.
         -5    1    1    2    0  503 -0.94418335365E+01  0.44951346442E+03  0.13233295131E+04  0.13976317802E+04  0.47000000000E+01 0.  1.
          5    1    1    2  503    0  0.12163154715E+03 -0.43607576937E+02  0.20904207993E+03  0.24579775265E+03  0.47000000000E+01 0. -1.
         -5    1    3    3    0  502 -0.10723241747E+03 -0.33609572629E+03  0.79144326663E+03  0.86652389631E+03  0.47000000000E+01 0. -1.
<mgrwt>
<rscale>  0 0.10415693E+04</rscale>
<asrwt>0</asrwt>
<pdfrwt beam="1">  1        1 0.38395589E+00 0.10415693E+04</pdfrwt>
<pdfrwt beam="2">  1       -1 0.16718924E-01 0.10415693E+04</pdfrwt>
<totfact> 0.37987802E+01</totfact>
</mgrwt>
</event>
<event>
 7    1  0.1795883E-009  0.1431464E+03  0.7546771E-02  0.1226771E+00
         -1   -1    0    0    0  501 -0.00000000000E+00  0.00000000000E+00  0.24961465758E+02  0.24961465758E+02  0.00000000000E+00 0.  1.
          1   -1    0    0  501    0  0.00000000000E+00 -0.00000000000E+00 -0.60330514201E+03  0.60330514201E+03  0.00000000000E+00 0. -1.
         25    2    1    2    0    0  0.40400756617E+02  0.56769468964E+02 -0.28856184326E+03  0.32211616405E+03  0.12504356048E+03 0.  0.
          5    1    3    3  502    0 -0.14290792883E+02  0.40574561422E+02 -0.24853890914E+03  0.25227802352E+03  0.47000000000E+01 0. -1.
         -5    1    1    2    0  503 -0.50443120047E+02 -0.15149183069E+02 -0.19497540705E+03  0.20201857702E+03  0.47000000000E+01 0.  1.
          5    1    1    2  503    0  0.10042363431E+02 -0.41620285895E+02 -0.94806425947E+02  0.10413186670E+03  0.47000000000E+01 0. -1.
         -5    1    3    3    0  502  0.54691549499E+02  0.16194907543E+02 -0.40022934117E+02  0.69838140527E+02  0.47000000000E+01 0. -1.
<mgrwt>
<rscale>  0 0.13046270E+03</rscale>
<asrwt>0</asrwt>
<pdfrwt beam="1">  1        1 0.92816166E-01 0.14314638E+03</pdfrwt>
<pdfrwt beam="2">  1       -1 0.38402259E-02 0.14314638E+03</pdfrwt>
<totfact> 0.87638482E+03</totfact>
</mgrwt>
</event>
<event>
 6    1  0.1795883E-009  0.1504645E+03  0.7546771E-02  0.1217763E+00
         -1   -1    0    0    0  501 -0.00000000000E+00  0.00000000000E+00  0.63002190957E+02  0.63002190957E+02  0.00000000000E+00 0.  1.
          1   -1    0    0  501    0  0.00000000000E+00 -0.00000000000E+00 -0.34270335470E+03  0.34270335470E+03  0.00000000000E+00 0. -1.
          5    1    1    2  502    0 -0.43402173602E+02 -0.31818466370E+02  0.15103017590E+02  0.56092375737E+02  0.47000000000E+01 0. -1.
         -5    1    1    2    0  503  0.38524844281E+02  0.11983043342E+02 -0.73672440108E+02  0.84127732563E+02  0.47000000000E+01 0.  1.
          5    1    1    2  503    0  0.37005822278E+02 -0.48554528815E+02 -0.14825748540E+03  0.16040369425E+03  0.47000000000E+01 0. -1.
         -5    1    1    2    0  502 -0.32128492957E+02  0.68389951843E+02 -0.72874255820E+02  0.10508174311E+03  0.47000000000E+01 0. -1.
<mgrwt>
<rscale>  0 0.13675549E+03</rscale>
<asrwt>0</asrwt>
<pdfrwt beam="1">  1        1 0.52723593E-01 0.15046455E+03</pdfrwt>
<pdfrwt beam="2">  1       -1 0.96926448E-02 0.15046455E+03</pdfrwt>
<totfact> 0.45757346E+03</totfact>
</mgrwt>
</event>
<event>
 7    1  0.1795883E-009  0.1800036E+03  0.7546771E-02  0.1174069E+00
          1   -1    0    0  501    0  0.00000000000E+00  0.00000000000E+00  0.22293515955E+03  0.22293515955E+03  0.00000000000E+00 0. -1.
         -1   -1    0    0    0  501 -0.00000000000E+00 -0.00000000000E+00 -0.12660601622E+03  0.12660601622E+03  0.00000000000E+00 0.  1.
         25    2    1    2    0    0 -0.11932307907E+03  0.50269012857E+02  0.52940355083E+02  0.18762727520E+03  0.12504536117E+03 0.  0.
          5    1    3    3  502    0  0.45742977058E+01  0.55173108492E+02  0.10940323528E+02  0.56628409646E+02  0.47000000000E+01 0. -1.
         -5    1    3    3    0  502 -0.12389737677E+03 -0.49040956351E+01  0.42000031555E+02  0.13099886555E+03  0.47000000000E+01 0. -1.
          5    1    1    2  503    0  0.11674789960E+03 -0.13512407863E+02  0.41475023062E+02  0.12471938408E+03  0.47000000000E+01 0. -1.
         -5    1    1    2    0  503  0.25751794625E+01 -0.36756604993E+02  0.19137651901E+01  0.37194516493E+02  0.47000000000E+01 0.  1.
<mgrwt>
<rscale>  0 0.17367472E+03</rscale>
<asrwt>0</asrwt>
<pdfrwt beam="1">  1        1 0.34297717E-01 0.18000365E+03</pdfrwt>
<pdfrwt beam="2">  1       -1 0.19477849E-01 0.18000365E+03</pdfrwt>
<totfact> 0.26410051E+03</totfact>
</mgrwt>
</event>
<event>
 7    1  0.1795883E-009  0.3030952E+03  0.7546771E-02  0.1083704E+00
         -2   -1    0    0    0  501 -0.00000000000E+00  0.00000000000E+00  0.15494626024E+02  0.15494626024E+02  0.00000000000E+00 0.  1.
          2   -1    0    0  501    0  0.00000000000E+00 -0.00000000000E+00 -0.14822344763E+04  0.14822344763E+04  0.00000000000E+00 0. -1.
         25    2    1    2    0    0  0.56401750791E+01  0.25114184854E+02 -0.69093295267E+03  0.70262701007E+03  0.12503534037E+03 0.  0.
          5    1    1    2  502    0  0.39165129089E+02 -0.69526773506E+02 -0.19339400349E+03  0.20926349456E+03  0.47000000000E+01 0.  1.
         -5    1    1    2    0  502 -0.44805304168E+02  0.44412588652E+02 -0.58241289410E+03  0.58583859768E+03  0.47000000000E+01 0. -1.
          5    1    3    3  503    0  0.64737165383E+02  0.53412138093E+01 -0.36095049028E+03  0.36677891921E+03  0.47000000000E+01 0. -1.
         -5    1    3    3    0  503 -0.59096990304E+02  0.19772971045E+02 -0.32998246239E+03  0.33584809086E+03  0.47000000000E+01 0. -1.
<mgrwt>
<rscale>  0 0.30309516E+03</rscale>
<asrwt>0</asrwt>
<pdfrwt beam="1">  1        2 0.22803611E+00 0.30309516E+03</pdfrwt>
<pdfrwt beam="2">  1       -2 0.23837883E-02 0.30309516E+03</pdfrwt>
<totfact> 0.83338882E+03</totfact>
</mgrwt>
</event>
<event>
 6    1  0.1795883E-009  0.2784598E+03  0.7546771E-02  0.1097420E+00
         -1   -1    0    0    0  501 -0.00000000000E+00  0.00000000000E+00  0.58333563853E+02  0.58333563853E+02  0.00000000000E+00 0.  1.
          1   -1    0    0  501    0  0.00000000000E+00 -0.00000000000E+00 -0.22304431667E+04  0.22304431667E+04  0.00000000000E+00 0. -1.
          5    1    1    2  502    0 -0.82430633784E+02 -0.84138790444E+02 -0.11167467220E+04  0.11229512352E+04  0.47000000000E+01 0. -1.
         -5    1    1    2    0  502 -0.14627227577E+03  0.62046407605E+01 -0.71611041931E+03  0.73093795829E+03  0.47000000000E+01 0.  1.
          5    1    1    2  503    0  0.83911091095E+01 -0.22441230934E+02 -0.62814044433E+02  0.67392237950E+02  0.47000000000E+01 0. -1.
         -5    1    1    2    0  503  0.22031180044E+03  0.10037538062E+03 -0.27643841710E+03  0.36749529915E+03  0.47000000000E+01 0.  1.
<mgrwt>
<rscale>  0 0.27685440E+03</rscale>
<asrwt>0</asrwt>
<pdfrwt beam="1">  1        1 0.34314511E+00 0.27845977E+03</pdfrwt>
<pdfrwt beam="2">  1       -1 0.89743942E-02 0.27845977E+03</pdfrwt>
<totfact> 0.17212048E+02</totfact>
</mgrwt>
</event>
<event>
 7    1  0.1795883E-009  0.4396181E+03  0.7546771E-02  0.1042615E+00
         -2   -1    0    0    0  501 -0.00000000000E+00  0.00000000000E+00  0.29550919024E+03  0.29550919024E+03  0.00000000000E+00 0.  1.
          2   -1    0    0  501    0  0.00000000000E+00 -0.00000000000E+00 -0.55794599558E+03  0.55794599558E+03  0.00000000000E+00 0. -1.
         25    2    1    2    0    0 -0.86070414649E+02  0.27220821400E+03  0.47962502951E+02  0.31529929048E+03  0.12493123246E+03 0.  0.
          5    1    1    2  502    0  0.10983444796E+03 -0.26065340869E+03 -0.37410888275E+03  0.46902382837E+03  0.47000000000E+01 0. -1.
         -5    1    3    3    0  503  0.18472256977E+02  0.33161167987E+02  0.38363341671E+02  0.54173086715E+02  0.47000000000E+01 0.  1.
          5    1    3    3  503    0 -0.10454267163E+03  0.23904704601E+03  0.95991612798E+01  0.26112620377E+03  0.47000000000E+01 0.  1.
         -5    1    1    2    0  502 -0.23764033308E+02 -0.11554805303E+02  0.63709574462E+02  0.69132066964E+02  0.47000000000E+01 0.  1.
<mgrwt>
<rscale>  0 0.40338194E+03</rscale>
<asrwt>0</asrwt>
<pdfrwt beam="1">  1        2 0.85837845E-01 0.43961806E+03</pdfrwt>
<pdfrwt beam="2">  1       -2 0.45462953E-01 0.43961806E+03</pdfrwt>
<totfact> 0.25408743E+02</totfact>
</mgrwt>
</event>
<event>
 7    1  0.1795883E-009  0.2498335E+03  0.7546771E-02  0.1135096E+00
         -3   -1    0    0    0  501 -0.00000000000E+00  0.00000000000E+00  0.55722531783E+03  0.55722531783E+03  0.00000000000E+00 0.  1.
          3   -1    0    0  501    0  0.00000000000E+00 -0.00000000000E+00 -0.18197746894E+03  0.18197746894E+03  0.00000000000E+00 0. -1.
         25    2    1    2    0    0  0.56756863916E+02 -0.49098005850E+02  0.45431820958E+03  0.47715527447E+03  0.12506064375E+03 0.  0.
          5    1    3    3  502    0  0.45383933432E+02 -0.89213673259E+02  0.26672509890E+03  0.28492656825E+03  0.47000000000E+01 0.  1.
         -5    1    3    3    0  502  0.11372930484E+02  0.40115667410E+02  0.18759311068E+03  0.19222870622E+03  0.47000000000E+01 0.  1.
          5    1    1    2  503    0 -0.47714442497E+02 -0.37030219189E+02 -0.14233845560E+03  0.15469399180E+03  0.47000000000E+01 0. -1.
         -5    1    1    2    0  503 -0.90424214190E+01  0.86128225039E+02  0.63268094905E+02  0.10735352051E+03  0.47000000000E+01 0.  1.
<mgrwt>
<rscale>  0 0.21838075E+03</rscale>
<asrwt>0</asrwt>
<pdfrwt beam="1">  1        3 0.27996534E-01 0.24983350E+03</pdfrwt>
<pdfrwt beam="2">  1       -3 0.85726971E-01 0.24983350E+03</pdfrwt>
<totfact> 0.38727385E+01</totfact>
</mgrwt>
</event>
<event>
 7    1  0.1795883E-009  0.1658285E+03  0.7546771E-02  0.1194048E+00
         -3   -1    0    0    0  501 -0.00000000000E+00  0.00000000000E+00  0.26468508873E+03  0.26468508873E+03  0.00000000000E+00 0.  1.
          3   -1    0    0  501    0  0.00000000000E+00 -0.00000000000E+00 -0.86710239328E+02  0.86710239328E+02  0.00000000000E+00 0. -1.
         25    2    1    2    0    0  0.90020547185E+02 -0.61491678222E+02  0.56665255249E+02  0.17524280294E+03  0.12495664617E+03 0.  0.
          5    1    1    2  502    0 -0.22038989935E+02  0.41196677418E+02  0.17051273240E+02  0.49957173927E+02  0.47000000000E+01 0. -1.
         -5    1    3    3    0  503 -0.21079873224E+02  0.17364255910E+02  0.19691135399E+02  0.33995724021E+02  0.47000000000E+01 0. -1.
          5    1    3    3  503    0  0.11110042041E+03 -0.78855934132E+02  0.36974119850E+02  0.14124707891E+03  0.47000000000E+01 0. -1.
         -5    1    1    2    0  502 -0.67981557251E+02  0.20295000804E+02  0.10425832091E+03  0.12619535119E+03  0.47000000000E+01 0.  1.
<mgrwt>
<rscale>  0 0.15535077E+03</rscale>
<asrwt>0</asrwt>
<pdfrwt beam="1">  1        3 0.13340037E-01 0.16582849E+03</pdfrwt>
<pdfrwt beam="2">  1       -3 0.40720783E-01 0.16582849E+03</pdfrwt>
<totfact> 0.64850472E+02</totfact>
</mgrwt>
</event>
<event>
 7    1  0.1795883E-009  0.1584156E+03  0.7546771E-02  0.1200892E+00
         -1   -1    0    0    0  501 -0.00000000000E+00  0.00000000000E+00  0.18072523133E+02  0.18072523133E+02  0.00000000000E+00 0.  1.
          1   -1    0    0  501    0  0.00000000000E+00 -0.00000000000E+00 -0.13236930749E+04  0.13236930749E+04  0.00000000000E+00 0. -1.
         25    2    1    2    0    0  0.11472141230E+01  0.17556439610E+02 -0.32880345980E+03  0.35218633236E+03  0.12495580359E+03 0.  0.
          5    1    3    3  502    0 -0.49128222030E+02 -0.12022614415E+02 -0.67883842742E+02  0.84784618668E+02  0.47000000000E+01 0.  1.
         -5    1    3    3    0  502  0.50275436153E+02  0.29579054025E+02 -0.26091961706E+03  0.26740171369E+03  0.47000000000E+01 0.  1.
          5    1    1    2  503    0  0.32697052135E+02 -0.79818524649E+02 -0.47995281928E+03  0.48766473404E+03  0.47000000000E+01 0. -1.
         -5    1    1    2    0  503 -0.33844266258E+02  0.62262085039E+02 -0.49686427265E+03  0.50191453159E+03  0.47000000000E+01 0.  1.
<mgrwt>
<rscale>  0 0.14965912E+03</rscale>
<asrwt>0</asrwt>
<pdfrwt beam="1">  1        1 0.20364506E+00 0.15841557E+03</pdfrwt>
<pdfrwt beam="2">  1       -1 0.27803886E-02 0.15841557E+03</pdfrwt>
<totfact> 0.39261820E+03</totfact>
</mgrwt>
</event>
<event>
 7    1  0.1795883E-009  0.1996976E+03  0.7546771E-02  0.1167354E+00
          1   -1    0    0  501    0  0.00000000000E+00  0.00000000000E+00  0.39227942957E+03  0.39227942957E+03  0.00000000000E+00 0. -1.
         -1   -1    0    0    0  501 -0.00000000000E+00 -0.00000000000E+00 -0.85882865447E+02  0.85882865447E+02  0.00000000000E+00 0.  1.
         25    2    1    2    0    0  0.40554298451E+02 -0.21373160749E+02  0.28907313169E+02  0.13628596774E+03  0.12504706764E+03 0.  0.
          5    1    1    2  502    0 -0.59356513519E+02 -0.77625279303E+02  0.15362464070E+03  0.18213044752E+03  0.47000000000E+01 0. -1.
         -5    1    1    2    0  502  0.18802215068E+02  0.98998440052E+02  0.12386461026E+03  0.15974587976E+03  0.47000000000E+01 0.  1.
          5    1    3    3  503    0 -0.72481324168E+01 -0.65951596957E+02  0.23449466649E+02  0.70527413470E+02  0.47000000000E+01 0. -1.
         -5    1    3    3    0  503  0.47802430867E+02  0.44578436208E+02  0.54578465194E+01  0.65758554274E+02  0.47000000000E+01 0. -1.
<mgrwt>
<rscale>  0 0.18046520E+03</rscale>
<asrwt>0</asrwt>
<pdfrwt beam="1">  1        1 0.60350681E-01 0.19969762E+03</pdfrwt>
<pdfrwt beam="2">  1       -1 0.13212749E-01 0.19969762E+03</pdfrwt>
<totfact> 0.24169532E+03</totfact>
</mgrwt>
</event>
<event>
 6    1  0.1795883E-009  0.3131690E+03  0.7546771E-02  0.1086559E+00
          2   -1    0    0  501    0  0.00000000000E+00  0.00000000000E+00  0.59813547283E+03  0.59813547283E+03  0.00000000000E+00 0. -1.
         -2   -1    0    0    0  501 -0.00000000000E+00 -0.00000000000E+00 -0.13726833599E+03  0.13726833599E+03  0.00000000000E+00 0.  1.
          5    1    1    2  502    0  0.20868960033E+03 -0.26994494457E+02  0.17287074347E+03  0.27237187073E+03  0.47000000000E+01 0.  1.
         -5    1    1    2    0  502  0.12844673582E+02  0.17574116539E+02 -0.15339935567E+02  0.27041428119E+02  0.47000000000E+01 0.  1.
          5    1    1    2  503    0 -0.11622641464E+03  0.58799442482E+02  0.29109632275E+03  0.31894374584E+03  0.47000000000E+01 0. -1.
         -5    1    1    2    0  503 -0.10530785927E+03 -0.49379064564E+02  0.12240006189E+02  0.11704676413E+03  0.47000000000E+01 0.  1.
<mgrwt>
<rscale>  0 0.29737744E+03</rscale>
<asrwt>0</asrwt>
<pdfrwt beam="1">  1        2 0.92020840E-01 0.31316896E+03</pdfrwt>
<pdfrwt beam="2">  1       -2 0.21118206E-01 0.31316896E+03</pdfrwt>
<totfact> 0.97073191E+02</totfact>
</mgrwt>
</event>
<event>
 7    1  0.1795883E-009  0.2136919E+03  0.7546771E-02  0.1158890E+00
          2   -1    0    0  501    0  0.00000000000E+00  0.00000000000E+00  0.47627040630E+03  0.47627040630E+03  0.00000000000E+00 0. -1.
         -2   -1    0    0    0  501 -0.00000000000E+00 -0.00000000000E+00 -0.15279307865E+03  0.15279307865E+03  0.00000000000E+00 0.  1.
         25    2    1    2    0    0 -0.41856602646E+02  0.11068660617E+02  0.38468847563E+03  0.40677756678E+03  0.12493308256E+03 0.  0.
          5    1    1    2  502    0  0.86117748076E+02  0.76582579304E+02 -0.30717443173E+02  0.11935999875E+03  0.47000000000E+01 0. -1.
         -5    1    1    2    0  502 -0.44261145431E+02 -0.87651239921E+02 -0.30493704812E+02  0.10292591942E+03  0.47000000000E+01 0.  1.
          5    1    3    3  503    0  0.24499628335E+02  0.42727078042E+02  0.23236127668E+03  0.23757038512E+03  0.47000000000E+01 0.  1.
         -5    1    3    3    0  503 -0.66356230981E+02 -0.31658417426E+02  0.15232719895E+03  0.16920718166E+03  0.47000000000E+01 0.  1.
<mgrwt>
<rscale>  0 0.18952535E+03</rscale>
<asrwt>0</asrwt>
<pdfrwt beam="1">  1        2 0.73272370E-01 0.21369189E+03</pdfrwt>
<pdfrwt beam="2">  1       -2 0.23506628E-01 0.21369189E+03</pdfrwt>
<totfact> 0.10422616E+03</totfact>
</mgrwt>
</event>
<event>
 7    1  0.1795883E-009  0.1345972E+03  0.7546771E-02  0.1231350E+00
         -2   -1    0    0    0  501 -0.00000000000E+00  0.00000000000E+00  0.37594881035E+02  0.37594881035E+02  0.00000000000E+00 0. -1.
          2   -1    0    0  501    0  0.00000000000E+00 -0.00000000000E+00 -0.45510389364E+03  0.45510389364E+03  0.00000000000E+00 0.  1.
         25    2    1    2    0    0 -0.35134332653E+02 -0.35332038664E+02 -0.13683611542E+03  0.19193888737E+03  0.12503455408E+03 0.  0.
          5    1    1    2  502    0  0.27991475194E+00  0.55220669446E+02 -0.88771500664E+02  0.10465118259E+03  0.47000000000E+01 0. -1.
         -5    1    1    2    0  502  0.34854417901E+02 -0.19888630782E+02 -0.19190139651E+03  0.19610870471E+03  0.47000000000E+01 0.  1.
          5    1    3    3  503    0 -0.78721210246E+02 -0.12467920021E+01 -0.85348522691E+02  0.11621120324E+03  0.47000000000E+01 0.  1.
         -5    1    3    3    0  503  0.43586877594E+02 -0.34085246662E+02 -0.51487592733E+02  0.75727684131E+02  0.47000000000E+01 0.  1.
<mgrwt>
<rscale>  0 0.12741011E+03</rscale>
<asrwt>0</asrwt>
<pdfrwt beam="1">  1        2 0.70015981E-01 0.13459723E+03</pdfrwt>
<pdfrwt beam="2">  1       -2 0.57838280E-02 0.13459723E+03</pdfrwt>
<totfact> 0.10293938E+04</totfact>
</mgrwt>
</event>
<event>
 7    1  0.1795883E-009  0.1301185E+03  0.7546771E-02  0.1235133E+00
          2   -1    0    0  501    0  0.00000000000E+00  0.00000000000E+00  0.44910038248E+03  0.44910038248E+03  0.00000000000E+00 0. -1.
         -2   -1    0    0    0  501 -0.00000000000E+00 -0.00000000000E+00 -0.48849793387E+02  0.48849793387E+02  0.00000000000E+00 0.  1.
         25    2    1    2    0    0 -0.14202504566E+02  0.33008266654E+02  0.66096423187E+02  0.14594373516E+03  0.12505830588E+03 0.  0.
          5    1    3    3  502    0  0.40300672638E+02 -0.26623625551E+02  0.32003701172E+02  0.58131648362E+02  0.47000000000E+01 0.  1.
         -5    1    1    2    0  503  0.42587265348E+02  0.19739910423E+02  0.19129966976E+03  0.19703043644E+03  0.47000000000E+01 0.  1.
          5    1    1    2  503    0 -0.28384760782E+02 -0.52748177077E+02  0.14285449614E+03  0.15497600426E+03  0.47000000000E+01 0. -1.
         -5    1    3    3    0  502 -0.54503177204E+02  0.59631892206E+02  0.34092722015E+02  0.87812086798E+02  0.47000000000E+01 0.  1.
<mgrwt>
<rscale>  0 0.12495951E+03</rscale>
<asrwt>0</asrwt>
<pdfrwt beam="1">  1        2 0.69092364E-01 0.13011855E+03</pdfrwt>
<pdfrwt beam="2">  1       -2 0.75153531E-02 0.13011855E+03</pdfrwt>
<totfact> 0.69904186E+03</totfact>
</mgrwt>
</event>
<event>
 7    1  0.1795883E-009  0.2451863E+03  0.7546771E-02  0.1135336E+00
         -2   -1    0    0    0  501 -0.00000000000E+00  0.00000000000E+00  0.37488036908E+02  0.37488036908E+02  0.00000000000E+00 0.  1.
          2   -1    0    0  501    0  0.00000000000E+00 -0.00000000000E+00 -0.11225499648E+04  0.11225499648E+04  0.00000000000E+00 0. -1.
         25    2    1    2    0    0  0.88405145708E+02  0.87095530724E+01 -0.55860892900E+03  0.57928928359E+03  0.12506323367E+03 0.  0.
          5    1    1    2  502    0 -0.12490135812E+03 -0.59677849842E+02 -0.48750212559E+03  0.50679602157E+03  0.47000000000E+01 0. -1.
         -5    1    3    3    0  503  0.15779979999E+02 -0.38190445419E+02 -0.36301532891E+03  0.36538984238E+03  0.47000000000E+01 0. -1.
          5    1    3    3  503    0  0.72625165709E+02  0.46899998491E+02 -0.19559360009E+03  0.21389944121E+03  0.47000000000E+01 0. -1.
         -5    1    1    2    0  502  0.36496212410E+02  0.50968296769E+02 -0.38950873288E+02  0.73952696541E+02  0.47000000000E+01 0.  1.
<mgrwt>
<rscale>  0 0.21806191E+03</rscale>
<asrwt>0</asrwt>
<pdfrwt beam="1">  1        2 0.17270000E+00 0.24518628E+03</pdfrwt>
<pdfrwt beam="2">  1       -2 0.57673901E-02 0.24518628E+03</pdfrwt>
<totfact> 0.34751555E+03</totfact>
</mgrwt>
</event>
<event>
 6    1  0.1795883E-009  0.5464074E+03  0.7546771E-02  0.1002329E+00
          1   -1    0    0  501    0  0.00000000000E+00  0.00000000000E+00  0.10636454202E+03  0.10636454202E+03  0.00000000000E+00 0.  1.
         -1   -1    0    0    0  501 -0.00000000000E+00 -0.00000000000E+00 -0.70173994981E+03  0.70173994981E+03  0.00000000000E+00 0. -1.
          5    1    1    2  502    0 -0.63918376619E+02 -0.14819914619E+02 -0.43026161782E+03  0.43526123019E+03  0.47000000000E+01 0. -1.
         -5    1    1    2    0  502 -0.78344730675E+02 -0.53298867822E+02  0.22774480219E+02  0.97567582141E+02  0.47000000000E+01 0.  1.
          5    1    1    2  503    0  0.79001622956E+02 -0.21128305940E+02 -0.12367193742E+03  0.14833913795E+03  0.47000000000E+01 0.  1.
         -5    1    1    2    0  503  0.63261484338E+02  0.89247088380E+02 -0.64216332766E+02  0.12693654154E+03  0.47000000000E+01 0.  1.
<mgrwt>
<rscale>  0 0.54640735E+03</rscale>
<asrwt>0</asrwt>
<pdfrwt beam="1">  1        1 0.16363777E-01 0.54640735E+03</pdfrwt>
<pdfrwt beam="2">  1       -1 0.10795999E+00 0.54640735E+03</pdfrwt>
<totfact> 0.27874467E+02</totfact>
</mgrwt>
</event>
<event>
 6    1  0.1795883E-009  0.2552274E+03  0.7546771E-02  0.1139724E+00
         -2   -1    0    0    0  501 -0.00000000000E+00  0.00000000000E+00  0.53716167053E+02  0.53716167053E+02  0.00000000000E+00 0.  1.
          2   -1    0    0  501    0  0.00000000000E+00 -0.00000000000E+00 -0.69449085747E+03  0.69449085747E+03  0.00000000000E+00 0. -1.
          5    1    1    2  502    0  0.22957591210E+02 -0.33567700736E+02 -0.40212150894E+02  0.57384219141E+02  0.47000000000E+01 0. -1.
         -5    1    1    2    0  502 -0.30492856507E+02  0.36122050979E+02  0.24379206322E+02  0.53395248532E+02  0.47000000000E+01 0.  1.
          5    1    1    2  503    0  0.26164448227E+01  0.59561151157E+02 -0.37805358440E+03  0.38275446332E+03  0.47000000000E+01 0.  1.
         -5    1    1    2    0  503  0.49188204738E+01 -0.62115501400E+02 -0.24688816144E+03  0.25467309353E+03  0.47000000000E+01 0.  1.
<mgrwt>
<rscale>  0 0.21234259E+03</rscale>
<asrwt>0</asrwt>
<pdfrwt beam="1">  1        2 0.10684474E+00 0.25522736E+03</pdfrwt>
<pdfrwt beam="2">  1       -2 0.82640263E-02 0.25522736E+03</pdfrwt>
<totfact> 0.37858175E+03</totfact>
</mgrwt>
</event>
<event>
 7    1  0.1795883E-009  0.1314698E+03  0.7546771E-02  0.1248731E+00
         -1   -1    0    0    0  501 -0.00000000000E+00  0.00000000000E+00  0.23012248279E+02  0.23012248279E+02  0.00000000000E+00 0.  1.
          1   -1    0    0  501    0  0.00000000000E+00 -0.00000000000E+00 -0.49300190353E+03  0.49300190353E+03  0.00000000000E+00 0. -1.
         25    2    1    2    0    0 -0.40141571847E+02 -0.60162873207E+01 -0.29699519303E+03  0.32479293413E+03  0.12504704664E+03 0.  0.
          5    1    1    2  502    0  0.27126395222E+02 -0.29192515833E+02 -0.11661708415E+03  0.12332752577E+03  0.47000000000E+01 0. -1.
         -5    1    3    3    0  503 -0.19509366565E+02  0.26405869557E+02 -0.28092116893E+03  0.28287219461E+03  0.47000000000E+01 0. -1.
          5    1    3    3  503    0 -0.20632205282E+02 -0.32422156878E+02 -0.16074024108E+02  0.41920739526E+02  0.47000000000E+01 0. -1.
         -5    1    1    2    0  502  0.13015176625E+02  0.35208803153E+02 -0.56377378072E+02  0.67893691904E+02  0.47000000000E+01 0.  1.
<mgrwt>
<rscale>  0 0.11664818E+03</rscale>
<asrwt>0</asrwt>
<pdfrwt beam="1">  1        1 0.75846446E-01 0.13146979E+03</pdfrwt>
<pdfrwt beam="2">  1       -1 0.35403459E-02 0.13146979E+03</pdfrwt>
<totfact> 0.12838064E+04</totfact>
</mgrwt>
</event>
<event>
 7    1  0.1795883E-009  0.2789467E+03  0.7546771E-02  0.1112711E+00
          2   -1    0    0  501    0  0.00000000000E+00  0.00000000000E+00  0.23319748549E+03  0.23319748549E+03  0.00000000000E+00 0. -1.
         -2   -1    0    0    0  501 -0.00000000000E+00 -0.00000000000E+00 -0.23133122201E+03  0.23133122201E+03  0.00000000000E+00 0.  1.
         25    2    1    2    0    0 -0.10545207390E+03 -0.81307934629E+02 -0.24535019181E+02  0.18433535131E+03  0.12508570842E+03 0.  0.
          5    1    1    2  502    0 -0.56267707336E+02  0.78751494902E+02  0.61301714304E+02  0.11466404412E+03  0.47000000000E+01 0. -1.
         -5    1    3    3    0  503 -0.36730248924E+02 -0.66239084903E+01 -0.64897635755E+02  0.75011868903E+02  0.47000000000E+01 0.  1.
          5    1    3    3  503    0 -0.68721824976E+02 -0.74684026139E+02  0.40362616574E+02  0.10932348240E+03  0.47000000000E+01 0. -1.
         -5    1    1    2    0  502  0.16171978124E+03  0.25564397278E+01 -0.34900431637E+02  0.16552931207E+03  0.47000000000E+01 0.  1.
<mgrwt>
<rscale>  0 0.25094168E+03</rscale>
<asrwt>0</asrwt>
<pdfrwt beam="1">  1        2 0.35876536E-01 0.27894675E+03</pdfrwt>
<pdfrwt beam="2">  1       -2 0.35589419E-01 0.27894675E+03</pdfrwt>
<totfact> 0.10726042E+03</totfact>
</mgrwt>
</event>
<event>
 7    1  0.1795883E-009  0.1335128E+03  0.7546771E-02  0.1225191E+00
          3   -1    0    0  501    0  0.00000000000E+00  0.00000000000E+00  0.78290150436E+02  0.78290150436E+02  0.00000000000E+00 0. -1.
         -3   -1    0    0    0  501 -0.00000000000E+00 -0.00000000000E+00 -0.26167771845E+03  0.26167771845E+03  0.00000000000E+00 0.  1.
         25    2    1    2    0    0  0.10405136711E+02  0.90115027529E+01 -0.16144491725E+03  0.20466398871E+03  0.12503364714E+03 0.  0.
          5    1    3    3  502    0  0.32182513792E+01 -0.55094640073E+02 -0.10546125833E+03  0.11912154933E+03  0.47000000000E+01 0. -1.
         -5    1    1    2    0  503  0.38099967720E+02  0.44258766761E+02 -0.23408007818E+02  0.63090972456E+02  0.47000000000E+01 0.  1.
          5    1    1    2  503    0 -0.48505104431E+02 -0.53270269514E+02  0.14653570549E+01  0.72212907719E+02  0.47000000000E+01 0. -1.
         -5    1    3    3    0  502  0.71868853320E+01  0.64106142826E+02 -0.55983658924E+02  0.85542439381E+02  0.47000000000E+01 0. -1.
<mgrwt>
<rscale>  0 0.13153848E+03</rscale>
<asrwt>0</asrwt>
<pdfrwt beam="1">  1        3 0.12044639E-01 0.13351277E+03</pdfrwt>
<pdfrwt beam="2">  1       -3 0.40258110E-01 0.13351277E+03</pdfrwt>
<totfact> 0.76346730E+02</totfact>
</mgrwt>
</event>
<event>
 7    1  0.1795883E-009  0.1429712E+03  0.7546771E-02  0.1224849E+00
         -1   -1    0    0    0  501 -0.00000000000E+00  0.00000000000E+00  0.26605609426E+02  0.26605609426E+02  0.00000000000E+00 0.  1.
          1   -1    0    0  501    0  0.00000000000E+00 -0.00000000000E+00 -0.73996455024E+03  0.73996455024E+03  0.00000000000E+00 0. -1.
         25    2    1    2    0    0  0.98940238879E+01  0.68555913017E+02 -0.21883773196E+03  0.26140143444E+03  0.12507178772E+03 0.  0.
          5    1    3    3  502    0 -0.49614383890E+02  0.23175947471E+02 -0.14945823592E+03  0.15924373117E+03  0.47000000000E+01 0.  1.
         -5    1    3    3    0  502  0.59508407778E+02  0.45379965546E+02 -0.69379496034E+02  0.10215770328E+03  0.47000000000E+01 0.  1.
          5    1    1    2  503    0  0.25597317655E+02 -0.17707505778E+02 -0.28153969153E+03  0.28329395747E+03  0.47000000000E+01 0. -1.
         -5    1    1    2    0  503 -0.35491341543E+02 -0.50848407239E+02 -0.21298151733E+03  0.22187476775E+03  0.47000000000E+01 0.  1.
<mgrwt>
<rscale>  0 0.13177274E+03</rscale>
<asrwt>0</asrwt>
<pdfrwt beam="1">  1        1 0.11384071E+00 0.14297118E+03</pdfrwt>
<pdfrwt beam="2">  1       -1 0.40931702E-02 0.14297118E+03</pdfrwt>
<totfact> 0.59819468E+03</totfact>
</mgrwt>
</event>
<event>
 7    1  0.1795883E-009  0.2521214E+03  0.7546771E-02  0.1132958E+00
          2   -1    0    0  501    0  0.00000000000E+00  0.00000000000E+00  0.66356234629E+03  0.66356234629E+03  0.00000000000E+00 0. -1.
         -2   -1    0    0    0  501 -0.00000000000E+00 -0.00000000000E+00 -0.61706729771E+02  0.61706729771E+02  0.00000000000E+00 0.  1.
         25    2    1    2    0    0 -0.51197304670E+02  0.64220135768E+02  0.26835699492E+03  0.30719425668E+03  0.12492975934E+03 0.  0.
          5    1    1    2  502    0 -0.26968141090E+02 -0.76014381044E+02  0.32898055147E+03  0.33875619552E+03  0.47000000000E+01 0. -1.
         -5    1    1    2    0  502  0.78165445760E+02  0.11794245276E+02  0.45180701234E+01  0.79318623855E+02  0.47000000000E+01 0.  1.
          5    1    3    3  503    0 -0.83641900221E+02  0.96017143785E+01  0.17388627140E+03  0.19325290625E+03  0.47000000000E+01 0. -1.
         -5    1    3    3    0  503  0.32444595551E+02  0.54618421390E+02  0.94470723520E+02  0.11394135043E+03  0.47000000000E+01 0.  1.
<mgrwt>
<rscale>  0 0.22124523E+03</rscale>
<asrwt>0</asrwt>
<pdfrwt beam="1">  1        2 0.10208651E+00 0.25212145E+03</pdfrwt>
<pdfrwt beam="2">  1       -2 0.94933435E-02 0.25212145E+03</pdfrwt>
<totfact> 0.32120154E+03</totfact>
</mgrwt>
</event>
<event>
 6    1  0.1795883E-009  0.1832686E+03  0.7546771E-02  0.1175436E+00
          2   -1    0    0  501    0  0.00000000000E+00  0.00000000000E+00  0.74445315059E+03  0.74445315059E+03  0.00000000000E+00 0. -1.
         -2   -1    0    0    0  501 -0.00000000000E+00 -0.00000000000E+00 -0.37784935268E+02  0.37784935268E+02  0.00000000000E+00 0.  1.
          5    1    1    2  502    0 -0.23748089519E+02 -0.55997382734E+01  0.15056910208E+02  0.29053904549E+02  0.47000000000E+01 0. -1.
         -5    1    1    2    0  502 -0.90379222120E+02 -0.65273231500E+02  0.20853466976E+03  0.23651172706E+03  0.47000000000E+01 0.  1.
          5    1    1    2  503    0  0.29426714954E+02  0.64866354196E+02  0.36039821770E+03  0.36739970166E+03  0.47000000000E+01 0. -1.
         -5    1    1    2    0  503  0.84700596685E+02  0.60066155783E+01  0.12267841766E+03  0.14927275260E+03  0.47000000000E+01 0.  1.
<mgrwt>
<rscale>  0 0.17233352E+03</rscale>
<asrwt>0</asrwt>
<pdfrwt beam="1">  1        2 0.11453124E+00 0.18326863E+03</pdfrwt>
<pdfrwt beam="2">  1       -2 0.58130675E-02 0.18326863E+03</pdfrwt>
<totfact> 0.59248697E+03</totfact>
</mgrwt>
</event>
<event>
 7    1  0.1795883E-009  0.2484803E+03  0.7546771E-02  0.1117872E+00
          1   -1    0    0  501    0  0.00000000000E+00  0.00000000000E+00  0.48287240617E+03  0.48287240617E+03  0.00000000000E+00 0. -1.
         -1   -1    0    0    0  501 -0.00000000000E+00 -0.00000000000E+00 -0.12323017945E+03  0.12323017945E+03  0.00000000000E+00 0.  1.
         25    2    1    2    0    0  0.10373268009E+02  0.18914805412E+03  0.10407396072E+03  0.24965117619E+03  0.12493890270E+03 0.  0.
          5    1    3    3  502    0 -0.40141350605E+02  0.29631688900E+02 -0.42091930015E+01  0.50290877117E+02  0.47000000000E+01 0. -1.
         -5    1    3    3    0  502  0.50514618614E+02  0.15951636522E+03  0.10828315373E+03  0.19936029907E+03  0.47000000000E+01 0. -1.
          5    1    1    2  503    0  0.91007126409E+01 -0.18389585750E+03  0.27304184448E+03  0.32935459343E+03  0.47000000000E+01 0. -1.
         -5    1    1    2    0  503 -0.19473980650E+02 -0.52521966118E+01 -0.17473578487E+02  0.27096815989E+02  0.47000000000E+01 0.  1.
<mgrwt>
<rscale>  0 0.24290637E+03</rscale>
<asrwt>0</asrwt>
<pdfrwt beam="1">  1        1 0.74288062E-01 0.24848032E+03</pdfrwt>
<pdfrwt beam="2">  1       -1 0.18958489E-01 0.24848032E+03</pdfrwt>
<totfact> 0.10424792E+03</totfact>
</mgrwt>
</event>
<event>
 7    1  0.1795883E-009  0.1405906E+03  0.7546771E-02  0.1240165E+00
          4   -1    0    0  501    0  0.00000000000E+00  0.00000000000E+00  0.11205922845E+03  0.11205922845E+03  0.00000000000E+00 0. -1.
         -4   -1    0    0    0  501 -0.00000000000E+00 -0.00000000000E+00 -0.14490133392E+03  0.14490133392E+03  0.00000000000E+00 0.  1.
         25    2    1    2    0    0 -0.57805693367E+02 -0.28490521498E+02  0.43298073709E+02  0.14710694631E+03  0.12495007989E+03 0.  0.
          5    1    3    3  502    0  0.30546948972E+02  0.22722096132E+02  0.11955271111E+02  0.40179948376E+02  0.47000000000E+01 0. -1.
         -5    1    3    3    0  502 -0.88352642339E+02 -0.51212617631E+02  0.31342802598E+02  0.10692699794E+03  0.47000000000E+01 0. -1.
          5    1    1    2  503    0  0.27870732167E+01  0.22738928358E+02 -0.18441224964E+02  0.29782468302E+02  0.47000000000E+01 0. -1.
         -5    1    1    2    0  503  0.55018620150E+02  0.57515931404E+01 -0.57698954212E+02  0.80071147763E+02  0.47000000000E+01 0.  1.
<mgrwt>
<rscale>  0 0.12179515E+03</rscale>
<asrwt>0</asrwt>
<pdfrwt beam="1">  1        4 0.17239881E-01 0.14059065E+03</pdfrwt>
<pdfrwt beam="2">  1       -4 0.22292513E-01 0.14059065E+03</pdfrwt>
<totfact> 0.90749792E+02</totfact>
</mgrwt>
</event>
<event>
 7    1  0.1795883E-009  0.1732464E+03  0.7546771E-02  0.1178562E+00
          2   -1    0    0  501    0  0.00000000000E+00  0.00000000000E+00  0.15893413462E+04  0.15893413462E+04  0.00000000000E+00 0. -1.
         -2   -1    0    0    0  501 -0.00000000000E+00 -0.00000000000E+00 -0.18683869226E+02  0.18683869226E+02  0.00000000000E+00 0.  1.
         25    2    1    2    0    0 -0.41696040464E+02 -0.87335306085E+02  0.53072482486E+03  0.55376042607E+03  0.12496301165E+03 0.  0.
          5    1    3    3  502    0  0.30738989416E+02 -0.71784549337E+02  0.34480441849E+03  0.35356765125E+03  0.47000000000E+01 0. -1.
         -5    1    3    3    0  502 -0.72435029880E+02 -0.15550756748E+02  0.18592040637E+03  0.20019277483E+03  0.47000000000E+01 0. -1.
          5    1    1    2  503    0 -0.27407856958E+02  0.76767419375E+02  0.80435988931E+03  0.80849325837E+03  0.47000000000E+01 0. -1.
         -5    1    1    2    0  503  0.69103897423E+02  0.10567886709E+02  0.23557276285E+03  0.24577153103E+03  0.47000000000E+01 0.  1.
<mgrwt>
<rscale>  0 0.16931722E+03</rscale>
<asrwt>0</asrwt>
<pdfrwt beam="1">  1        2 0.24451395E+00 0.17324643E+03</pdfrwt>
<pdfrwt beam="2">  1       -2 0.28744427E-02 0.17324643E+03</pdfrwt>
<totfact> 0.54730393E+03</totfact>
</mgrwt>
</event>
<event>
 7    1  0.1795883E-009  0.1548931E+03  0.7546771E-02  0.1211926E+00
          1   -1    0    0  501    0  0.00000000000E+00  0.00000000000E+00  0.10984798402E+04  0.10984798402E+04  0.00000000000E+00 0.  1.
         -1   -1    0    0    0  501 -0.00000000000E+00 -0.00000000000E+00 -0.15951582842E+02  0.15951582842E+02  0.00000000000E+00 0. -1.
         25    2    1    2    0    0  0.22536049233E+02  0.88735225280E+02  0.55211095895E+03  0.57342688212E+03  0.12494024344E+03 0.  0.
          5    1    1    2  502    0  0.14572588776E+02 -0.41116689756E+02  0.17198166820E+03  0.17749007498E+03  0.47000000000E+01 0. -1.
         -5    1    3    3    0  503  0.50663775977E+02  0.10559095061E+03  0.47947473713E+03  0.49359333524E+03  0.47000000000E+01 0.  1.
          5    1    3    3  503    0 -0.28127726744E+02 -0.16855725331E+02  0.72636221821E+02  0.79833546888E+02  0.47000000000E+01 0.  1.
         -5    1    1    2    0  502 -0.37108638009E+02 -0.47618535524E+02  0.35843563022E+03  0.36351446595E+03  0.47000000000E+01 0.  1.
<mgrwt>
<rscale>  0 0.14104803E+03</rscale>
<asrwt>0</asrwt>
<pdfrwt beam="1">  1        1 0.16899684E+00 0.15489312E+03</pdfrwt>
<pdfrwt beam="2">  1       -1 0.24540905E-02 0.15489312E+03</pdfrwt>
<totfact> 0.67184500E+03</totfact>
</mgrwt>
</event>
<event>
 7    1  0.1795883E-009  0.1496978E+03  0.7546771E-02  0.1207633E+00
          2   -1    0    0  501    0  0.00000000000E+00  0.00000000000E+00  0.68535926526E+03  0.68535926526E+03  0.00000000000E+00 0. -1.
         -2   -1    0    0    0  501 -0.00000000000E+00 -0.00000000000E+00 -0.30030466829E+02  0.30030466829E+02  0.00000000000E+00 0.  1.
         25    2    1    2    0    0 -0.18911613951E+02  0.80020311505E+02  0.26708134209E+03  0.30617297220E+03  0.12509414941E+03 0.  0.
          5    1    3    3  502    0  0.75912674184E+01 -0.25480026030E+02  0.12102064107E+03  0.12399574441E+03  0.47000000000E+01 0. -1.
         -5    1    3    3    0  502 -0.26502881370E+02  0.10550033753E+03  0.14606070103E+03  0.18217722779E+03  0.47000000000E+01 0. -1.
          5    1    1    2  503    0  0.52677486478E+02 -0.75164661685E+02  0.31749079394E+03  0.33052554846E+03  0.47000000000E+01 0. -1.
         -5    1    1    2    0  503 -0.33765872526E+02 -0.48556498201E+01  0.70756662401E+02  0.78691211433E+02  0.47000000000E+01 0.  1.
<mgrwt>
<rscale>  0 0.14431902E+03</rscale>
<asrwt>0</asrwt>
<pdfrwt beam="1">  1        2 0.10543988E+00 0.14969785E+03</pdfrwt>
<pdfrwt beam="2">  1       -2 0.46200723E-02 0.14969785E+03</pdfrwt>
<totfact> 0.91684962E+03</totfact>
</mgrwt>
</event>
<event>
 7    1  0.1795883E-009  0.2383413E+03  0.7546771E-02  0.1121043E+00
          2   -1    0    0  501    0  0.00000000000E+00  0.00000000000E+00  0.16951067823E+04  0.16951067823E+04  0.00000000000E+00 0. -1.
         -2   -1    0    0    0  501 -0.00000000000E+00 -0.00000000000E+00 -0.49255438753E+02  0.49255438753E+02  0.00000000000E+00 0.  1.
         25    2    1    2    0    0  0.43491386032E+02 -0.19723703933E+03  0.32703148136E+03  0.40417850721E+03  0.12496689781E+03 0.  0.
          5    1    3    3  502    0 -0.15925367540E+02 -0.14459145317E+03  0.26859688190E+03  0.30549415809E+03  0.47000000000E+01 0. -1.
         -5    1    1    2    0  503 -0.35670007467E+01  0.79986111433E+02  0.21581547370E+03  0.23023663958E+03  0.47000000000E+01 0.  1.
          5    1    1    2  503    0 -0.39924385286E+02  0.11725092790E+03  0.11030043884E+04  0.11099470742E+04  0.47000000000E+01 0. -1.
         -5    1    3    3    0  502  0.59416753572E+02 -0.52645586163E+02  0.58434599458E+02  0.98684349120E+02  0.47000000000E+01 0. -1.
<mgrwt>
<rscale>  0 0.23813300E+03</rscale>
<asrwt>0</asrwt>
<pdfrwt beam="1">  1        2 0.26078561E+00 0.23834126E+03</pdfrwt>
<pdfrwt beam="2">  1       -2 0.75777611E-02 0.23834126E+03</pdfrwt>
<totfact> 0.11106797E+03</totfact>
</mgrwt>
</event>
<event>
 7    1  0.1795883E-009  0.1590443E+03  0.7546771E-02  0.1195528E+00
          1   -1    0    0  501    0  0.00000000000E+00  0.00000000000E+00  0.87590676930E+03  0.87590676930E+03  0.00000000000E+00 0. -1.
         -1   -1    0    0    0  501 -0.00000000000E+00 -0.00000000000E+00 -0.34527992815E+02  0.34527992815E+02  0.00000000000E+00 0.  1.
         25    2    1    2    0    0 -0.63158059804E+02 -0.68076545038E+01  0.63280752074E+03  0.64814282015E+03  0.12493387182E+03 0.  0.
          5    1    1    2  502    0 -0.37119581211E+01 -0.59589315876E+02  0.51144578258E+02  0.78756098715E+02  0.47000000000E+01 0. -1.
         -5    1    3    3    0  503 -0.61520745858E+02 -0.59920142905E+02  0.42341136872E+03  0.43205844843E+03  0.47000000000E+01 0.  1.
          5    1    3    3  503    0 -0.16373139456E+01  0.53112488401E+02  0.20939615202E+03  0.21608437172E+03  0.47000000000E+01 0.  1.
         -5    1    1    2    0  502  0.66870017925E+02  0.66396970380E+02  0.15742667749E+03  0.18353584325E+03  0.47000000000E+01 0.  1.
<mgrwt>
<rscale>  0 0.15409611E+03</rscale>
<asrwt>0</asrwt>
<pdfrwt beam="1">  1        1 0.13475487E+00 0.15904431E+03</pdfrwt>
<pdfrwt beam="2">  1       -1 0.53119996E-02 0.15904431E+03</pdfrwt>
<totfact> 0.31616831E+03</totfact>
</mgrwt>
</event>
<event>
 7    1  0.1795883E-009  0.6217666E+03  0.7546771E-02  0.9861249E-01
         -1   -1    0    0    0  501 -0.00000000000E+00  0.00000000000E+00  0.29242291074E+03  0.29242291074E+03  0.00000000000E+00 0.  1.
          1   -1    0    0  501    0  0.00000000000E+00 -0.00000000000E+00 -0.33050905650E+03  0.33050905650E+03  0.00000000000E+00 0. -1.
         25    2    1    2    0    0 -0.22187632187E+03  0.14079525774E+03 -0.32222767918E+00  0.29097430760E+03  0.12495413977E+03 0.  0.
          5    1    3    3  502    0 -0.84230998144E+02  0.12694682057E+03 -0.45483025711E+01  0.15248978115E+03  0.47000000000E+01 0. -1.
         -5    1    1    2    0  503  0.25199761385E+03 -0.85456387892E+02 -0.23373945447E+02  0.26715917155E+03  0.47000000000E+01 0.  1.
          5    1    1    2  503    0 -0.30121291973E+02 -0.55338869844E+02 -0.14389972634E+02  0.64798488085E+02  0.47000000000E+01 0. -1.
         -5    1    3    3    0  502 -0.13764532373E+03  0.13848437169E+02  0.42260748919E+01  0.13848452645E+03  0.47000000000E+01 0. -1.
<mgrwt>
<rscale>  0 0.62176658E+03</rscale>
<asrwt>0</asrwt>
<pdfrwt beam="1">  1        1 0.50847547E-01 0.62176658E+03</pdfrwt>
<pdfrwt beam="2">  1       -1 0.44988140E-01 0.62176658E+03</pdfrwt>
<totfact> 0.38330824E+02</totfact>
</mgrwt>
</event>
<event>
 7    1  0.1795883E-009  0.3608870E+03  0.7546771E-02  0.1087427E+00
         -2   -1    0    0    0  501 -0.00000000000E+00  0.00000000000E+00  0.31292291508E+03  0.31292291508E+03  0.00000000000E+00 0.  1.
          2   -1    0    0  501    0  0.00000000000E+00 -0.00000000000E+00 -0.28803567437E+03  0.28803567437E+03  0.00000000000E+00 0. -1.
         25    2    1    2    0    0 -0.94212970785E+02  0.43744913490E+02 -0.13006397440E+03  0.20821271661E+03  0.12508475768E+03 0.  0.
          5    1    1    2  502    0  0.12454980838E+03 -0.16217309282E+03  0.17449089705E+03  0.26885298949E+03  0.47000000000E+01 0. -1.
         -5    1    1    2    0  502 -0.30336837597E+02  0.11842817933E+03 -0.19539681938E+02  0.12389288336E+03  0.47000000000E+01 0.  1.
          5    1    3    3  503    0  0.13013502656E+02 -0.29286439934E+02 -0.31856577776E+02  0.45431028636E+02  0.47000000000E+01 0. -1.
         -5    1    3    3    0  503 -0.10722647344E+03  0.73031353423E+02 -0.98207396624E+02  0.16278168798E+03  0.47000000000E+01 0.  1.
<mgrwt>
<rscale>  0 0.29566690E+03</rscale>
<asrwt>0</asrwt>
<pdfrwt beam="1">  1        2 0.44313180E-01 0.36088702E+03</pdfrwt>
<pdfrwt beam="2">  1       -2 0.48141987E-01 0.36088702E+03</pdfrwt>
<totfact> 0.47526721E+02</totfact>
</mgrwt>
</event>
<event>
 7    1  0.1795883E-009  0.1413654E+03  0.7546771E-02  0.1230888E+00
          2   -1    0    0  501    0  0.00000000000E+00  0.00000000000E+00  0.45349648885E+03  0.45349648885E+03  0.00000000000E+00 0.  1.
         -2   -1    0    0    0  501 -0.00000000000E+00 -0.00000000000E+00 -0.37870422559E+02  0.37870422559E+02  0.00000000000E+00 0. -1.
         25    2    1    2    0    0  0.58155989809E+02  0.31410997548E+02  0.34744888907E+03  0.37510652664E+03  0.12496161766E+03 0.  0.
          5    1    3    3  502    0  0.31777034723E+02 -0.89977240367E+01  0.10917166673E+02  0.35100049884E+02  0.47000000000E+01 0.  1.
         -5    1    3    3    0  502  0.26378955086E+02  0.40408721585E+02  0.33653172240E+03  0.34000647675E+03  0.47000000000E+01 0.  1.
          5    1    1    2  503    0 -0.46781863602E+02 -0.77121800332E+00  0.68682248837E+02  0.83237484612E+02  0.47000000000E+01 0. -1.
         -5    1    1    2    0  503 -0.11374126208E+02 -0.30639779545E+02 -0.50507162172E+00  0.33022900159E+02  0.47000000000E+01 0.  1.
<mgrwt>
<rscale>  0 0.12771376E+03</rscale>
<asrwt>0</asrwt>
<pdfrwt beam="1">  1        2 0.69768687E-01 0.14136540E+03</pdfrwt>
<pdfrwt beam="2">  1       -2 0.58262192E-02 0.14136540E+03</pdfrwt>
<totfact> 0.10254757E+04</totfact>
</mgrwt>
</event>
<event>
 7    1  0.1795883E-009  0.3546131E+03  0.7546771E-02  0.1075305E+00
         -2   -1    0    0    0  501 -0.00000000000E+00  0.00000000000E+00  0.19730798147E+03  0.19730798147E+03  0.00000000000E+00 0.  1.
          2   -1    0    0  501    0  0.00000000000E+00 -0.00000000000E+00 -0.44751004597E+03  0.44751004597E+03  0.00000000000E+00 0. -1.
         25    2    1    2    0    0  0.13797831205E+03  0.14724852359E+03 -0.72543163234E+02  0.24819081207E+03  0.12496410031E+03 0.  0.
          5    1    3    3  502    0  0.13004421608E+03  0.10296268867E+03 -0.10146509590E+03  0.19449953491E+03  0.47000000000E+01 0.  1.
         -5    1    1    2    0  503 -0.36202766003E+02  0.77313318390E+02 -0.11299422249E+03  0.14169606128E+03  0.47000000000E+01 0.  1.
          5    1    1    2  503    0 -0.10177554604E+03 -0.22456184198E+03 -0.64664678775E+02  0.25493115410E+03  0.47000000000E+01 0. -1.
         -5    1    3    3    0  502  0.79340959722E+01  0.44285834923E+02  0.28921932667E+02  0.53691277159E+02  0.47000000000E+01 0.  1.
<mgrwt>
<rscale>  0 0.32074841E+03</rscale>
<asrwt>0</asrwt>
<pdfrwt beam="1">  1        2 0.68847699E-01 0.35461312E+03</pdfrwt>
<pdfrwt beam="2">  1       -2 0.30355074E-01 0.35461312E+03</pdfrwt>
<totfact> 0.70770418E+02</totfact>
</mgrwt>
</event>
<event>
 7    1  0.1795883E-009  0.2277672E+03  0.7546771E-02  0.1139865E+00
         -1   -1    0    0    0  501 -0.00000000000E+00  0.00000000000E+00  0.12544998984E+03  0.12544998984E+03  0.00000000000E+00 0.  1.
          1   -1    0    0  501    0  0.00000000000E+00 -0.00000000000E+00 -0.38522432991E+03  0.38522432991E+03  0.00000000000E+00 0. -1.
         25    2    1    2    0    0 -0.87185202534E+02  0.78682695318E+02 -0.87203511334E+01  0.17169645514E+03  0.12494559656E+03 0.  0.
          5    1    3    3  502    0 -0.10677075768E+03  0.88917702703E+02 -0.28208643294E+02  0.14185968457E+03  0.47000000000E+01 0.  1.
         -5    1    3    3    0  502  0.19585555147E+02 -0.10235007385E+02  0.19488292161E+02  0.29836770568E+02  0.47000000000E+01 0.  1.
          5    1    1    2  503    0  0.14381583470E+03 -0.21256384091E+02 -0.14215973990E+03  0.20338709355E+03  0.47000000000E+01 0. -1.
         -5    1    1    2    0  503 -0.56630632168E+02 -0.57426311227E+02 -0.10889424904E+03  0.13559077105E+03  0.47000000000E+01 0.  1.
<mgrwt>
<rscale>  0 0.21216243E+03</rscale>
<asrwt>0</asrwt>
<pdfrwt beam="1">  1        1 0.59265282E-01 0.22776718E+03</pdfrwt>
<pdfrwt beam="2">  1       -1 0.19299998E-01 0.22776718E+03</pdfrwt>
<totfact> 0.13566244E+03</totfact>
</mgrwt>
</event>
<event>
 7    1  0.1795883E-009  0.5340757E+03  0.7546771E-02  0.1005248E+00
          1   -1    0    0  501    0  0.00000000000E+00  0.00000000000E+00  0.85987367742E+03  0.85987367742E+03  0.00000000000E+00 0. -1.
         -1   -1    0    0    0  501 -0.00000000000E+00 -0.00000000000E+00 -0.82929867014E+02  0.82929867014E+02  0.00000000000E+00 0.  1.
         25    2    1    2    0    0 -0.78376584268E+02 -0.16582708404E+03  0.38446100923E+03  0.44391680980E+03  0.12494140885E+03 0.  0.
          5    1    3    3  502    0  0.27768526205E+02 -0.55648223702E+02  0.67319115403E+02  0.91770197491E+02  0.47000000000E+01 0. -1.
         -5    1    1    2    0  503  0.89952385523E+02  0.20876158392E+03  0.20497293358E+03  0.30611897047E+03  0.47000000000E+01 0.  1.
          5    1    1    2  503    0 -0.11575801255E+02 -0.42934499880E+02  0.18750986759E+03  0.19276776416E+03  0.47000000000E+01 0. -1.
         -5    1    3    3    0  502 -0.10614511047E+03 -0.11017886033E+03  0.31714189382E+03  0.35214661231E+03  0.47000000000E+01 0. -1.
<mgrwt>
<rscale>  0 0.53407569E+03</rscale>
<asrwt>0</asrwt>
<pdfrwt beam="1">  1        1 0.13228825E+00 0.53407569E+03</pdfrwt>
<pdfrwt beam="2">  1       -1 0.12758442E-01 0.53407569E+03</pdfrwt>
<totfact> 0.84978023E+02</totfact>
</mgrwt>
</event>
<event>
 7    1  0.1795883E-009  0.4429668E+03  0.7546771E-02  0.1066814E+00
         -2   -1    0    0    0  501 -0.00000000000E+00  0.00000000000E+00  0.14396476547E+04  0.14396476547E+04  0.00000000000E+00 0.  1.
          2   -1    0    0  501    0  0.00000000000E+00 -0.00000000000E+00 -0.74477885146E+02  0.74477885146E+02  0.00000000000E+00 0. -1.
         25    2    1    2    0    0 -0.45722376549E+02  0.76744306506E+02  0.12783147533E+03  0.19988597031E+03  0.12503315857E+03 0.  0.
          5    1    1    2  502    0  0.16564888777E+03 -0.19994880908E+03  0.59364335363E+03  0.64796111117E+03  0.47000000000E+01 0. -1.
         -5    1    1    2    0  502 -0.11992651122E+03  0.12320450257E+03  0.64369494064E+03  0.66627845841E+03  0.47000000000E+01 0.  1.
          5    1    3    3  503    0 -0.48084321890E+02  0.10700964697E+03  0.12062704331E+03  0.16833341954E+03  0.47000000000E+01 0. -1.
         -5    1    3    3    0  503  0.23619453409E+01 -0.30265340464E+02  0.72044320182E+01  0.31552550767E+02  0.47000000000E+01 0. -1.
<mgrwt>
<rscale>  0 0.33995659E+03</rscale>
<asrwt>0</asrwt>
<pdfrwt beam="1">  1        2 0.11458137E-01 0.44296681E+03</pdfrwt>
<pdfrwt beam="2">  1       -2 0.22148423E+00 0.44296681E+03</pdfrwt>
<totfact> 0.56452432E+01</totfact>
</mgrwt>
</event>
<event>
 7    1  0.1795883E-009  0.2043380E+03  0.7546771E-02  0.1149219E+00
         -1   -1    0    0    0  501 -0.00000000000E+00  0.00000000000E+00  0.76335714464E+02  0.76335714464E+02  0.00000000000E+00 0.  1.
          1   -1    0    0  501    0  0.00000000000E+00 -0.00000000000E+00 -0.78363477345E+03  0.78363477345E+03  0.00000000000E+00 0. -1.
         25    2    1    2    0    0  0.96027856061E+01  0.16133234998E+03 -0.61657250895E+03  0.64955035341E+03  0.12503464392E+03 0.  0.
          5    1    3    3  502    0 -0.56567681398E+02  0.65883953707E+02 -0.29823320547E+03  0.31065371844E+03  0.47000000000E+01 0.  1.
         -5    1    1    2    0  503 -0.37663131447E+02 -0.29501635366E+02 -0.35186104422E+00  0.48073607789E+02  0.47000000000E+01 0.  1.
          5    1    1    2  503    0  0.28060345841E+02 -0.13183071462E+03 -0.90374688989E+02  0.16234652671E+03  0.47000000000E+01 0. -1.
         -5    1    3    3    0  502  0.66170467004E+02  0.95448396277E+02 -0.31833930349E+03  0.33889663498E+03  0.47000000000E+01 0.  1.
<mgrwt>
<rscale>  0 0.20061708E+03</rscale>
<asrwt>0</asrwt>
<pdfrwt beam="1">  1        1 0.12055919E+00 0.20433796E+03</pdfrwt>
<pdfrwt beam="2">  1       -1 0.11743957E-01 0.20433796E+03</pdfrwt>
<totfact> 0.11288878E+03</totfact>
</mgrwt>
</event>
<event>
 7    1  0.1795883E-009  0.2369138E+03  0.7546771E-02  0.1135900E+00
         -2   -1    0    0    0  501 -0.00000000000E+00  0.00000000000E+00  0.76790488971E+02  0.76790488971E+02  0.00000000000E+00 0.  1.
          2   -1    0    0  501    0  0.00000000000E+00 -0.00000000000E+00 -0.58784116704E+03  0.58784116704E+03  0.00000000000E+00 0. -1.
         25    2    1    2    0    0 -0.95994088164E+02  0.57485031166E+02 -0.31601175990E+03  0.35776307991E+03  0.12494636922E+03 0.  0.
          5    1    3    3  502    0 -0.94363316017E+02  0.91370960256E+02 -0.27111065758E+03  0.30129083365E+03  0.47000000000E+01 0. -1.
         -5    1    3    3    0  502 -0.16307721470E+01 -0.33885929090E+02 -0.44901102316E+02  0.56472246257E+02  0.47000000000E+01 0. -1.
          5    1    1    2  503    0 -0.89422318641E+01 -0.10240001296E+03 -0.31941333376E+02  0.10774073019E+03  0.47000000000E+01 0. -1.
         -5    1    1    2    0  503  0.10493632003E+03  0.44914981792E+02 -0.16309758479E+03  0.19912784591E+03  0.47000000000E+01 0.  1.
<mgrwt>
<rscale>  0 0.21731559E+03</rscale>
<asrwt>0</asrwt>
<pdfrwt beam="1">  1        2 0.90437099E-01 0.23691379E+03</pdfrwt>
<pdfrwt beam="2">  1       -2 0.11813922E-01 0.23691379E+03</pdfrwt>
<totfact> 0.26061228E+03</totfact>
</mgrwt>
</event>
<event>
 7    1  0.1795883E-009  0.2173552E+03  0.7546771E-02  0.1136560E+00
         -1   -1    0    0    0  501 -0.00000000000E+00  0.00000000000E+00  0.78508878708E+02  0.78508878708E+02  0.00000000000E+00 0.  1.
          1   -1    0    0  501    0  0.00000000000E+00 -0.00000000000E+00 -0.67661046175E+03  0.67661046175E+03  0.00000000000E+00 0. -1.
         25    2    1    2    0    0 -0.17852162784E+02  0.17242787084E+03 -0.16319275280E+03  0.26892084604E+03  0.12504589761E+03 0.  0.
          5    1    3    3  502    0 -0.50000420862E+02  0.15829604337E+03 -0.93112752186E+02  0.19039368175E+03  0.47000000000E+01 0. -1.
         -5    1    3    3    0  502  0.32148258079E+02  0.14131827479E+02 -0.70080000611E+02  0.78527164287E+02  0.47000000000E+01 0. -1.
          5    1    1    2  503    0 -0.49320384661E+02 -0.30610157880E+02 -0.89406219923E+02  0.10670072291E+03  0.47000000000E+01 0.  1.
         -5    1    1    2    0  503  0.67172547445E+02 -0.14181771296E+03 -0.34550261032E+03  0.37949777151E+03  0.47000000000E+01 0. -1.
<mgrwt>
<rscale>  0 0.21644675E+03</rscale>
<asrwt>0</asrwt>
<pdfrwt beam="1">  1        1 0.10409392E+00 0.21735521E+03</pdfrwt>
<pdfrwt beam="2">  1       -1 0.12078289E-01 0.21735521E+03</pdfrwt>
<totfact> 0.13421413E+03</totfact>
</mgrwt>
</event>
<event>
 7    1  0.1795883E-009  0.4718981E+03  0.7546771E-02  0.1043503E+00
         -1   -1    0    0    0  501 -0.00000000000E+00  0.00000000000E+00  0.10680281802E+03  0.10680281802E+03  0.00000000000E+00 0.  1.
          1   -1    0    0  501    0  0.00000000000E+00 -0.00000000000E+00 -0.12086573861E+04  0.12086573861E+04  0.00000000000E+00 0. -1.
         25    2    1    2    0    0 -0.17937810845E+03 -0.11185807028E+03 -0.41238722944E+03  0.47996453246E+03  0.12495595917E+03 0.  0.
          5    1    3    3  502    0 -0.10221930915E+03  0.75797667663E+01 -0.19069537353E+03  0.21654804435E+03  0.47000000000E+01 0. -1.
         -5    1    3    3    0  502 -0.77158799306E+02 -0.11943783704E+03 -0.22169185591E+03  0.26341648811E+03  0.47000000000E+01 0. -1.
          5    1    1    2  503    0  0.68383495576E+02  0.26335979866E+03 -0.49644763540E+03  0.56614223541E+03  0.47000000000E+01 0. -1.
         -5    1    1    2    0  503  0.11099461288E+03 -0.15150172838E+03 -0.19301970326E+03  0.26935343628E+03  0.47000000000E+01 0.  1.
<mgrwt>
<rscale>  0 0.40080052E+03</rscale>
<asrwt>0</asrwt>
<pdfrwt beam="1">  1        1 0.18594729E+00 0.47189809E+03</pdfrwt>
<pdfrwt beam="2">  1       -1 0.16431203E-01 0.47189809E+03</pdfrwt>
<totfact> 0.30831249E+02</totfact>
</mgrwt>
</event>
<event>
 6    1  0.1795883E-009  0.2639892E+03  0.7546771E-02  0.1104770E+00
         -1   -1    0    0    0  501 -0.00000000000E+00  0.00000000000E+00  0.16094881308E+02  0.16094881308E+02  0.00000000000E+00 0.  1.
          1   -1    0    0  501    0  0.00000000000E+00 -0.00000000000E+00 -0.10824914689E+04  0.10824914689E+04  0.00000000000E+00 0. -1.
          5    1    1    2  502    0 -0.16648340443E+02  0.11615219704E+02 -0.44970018991E+02  0.49562820504E+02  0.47000000000E+01 0. -1.
         -5    1    1    2    0  503  0.93994230138E+02  0.30996885579E+02 -0.78500199876E+03  0.79123065555E+03  0.47000000000E+01 0.  1.
          5    1    1    2  503    0 -0.35615811582E+02 -0.22119843833E+01 -0.14481203635E+03  0.14921794390E+03  0.47000000000E+01 0.  1.
         -5    1    1    2    0  502 -0.41730078113E+02 -0.40400120899E+02 -0.91612533477E+02  0.10857493025E+03  0.47000000000E+01 0.  1.
<mgrwt>
<rscale>  0 0.26398918E+03</rscale>
<asrwt>0</asrwt>
<pdfrwt beam="1">  1        1 0.16653709E+00 0.26398918E+03</pdfrwt>
<pdfrwt beam="2">  1       -1 0.24761365E-02 0.26398918E+03</pdfrwt>
<totfact> 0.69465870E+03</totfact>
</mgrwt>
</event>
<event>
 6    1  0.1795883E-009  0.2272214E+03  0.7546771E-02  0.1177159E+00
         -1   -1    0    0    0  501 -0.00000000000E+00  0.00000000000E+00  0.22628180401E+02  0.22628180401E+02  0.00000000000E+00 0.  1.
          1   -1    0    0  501    0  0.00000000000E+00 -0.00000000000E+00 -0.11015938952E+04  0.11015938952E+04  0.00000000000E+00 0. -1.
          5    1    1    2  502    0 -0.31369794900E+02  0.12665371786E+02 -0.19057559796E+03  0.19361204562E+03  0.47000000000E+01 0. -1.
         -5    1    1    2    0  503 -0.22270985781E+01  0.37515131102E+02 -0.25288395148E+03  0.25570437608E+03  0.47000000000E+01 0.  1.
          5    1    1    2  503    0 -0.81982965273E+02 -0.63480060540E+02 -0.21768185516E+03  0.24116053729E+03  0.47000000000E+01 0. -1.
         -5    1    1    2    0  502  0.11557985875E+03  0.13299557651E+02 -0.41782431020E+03  0.43374511660E+03  0.47000000000E+01 0. -1.
<mgrwt>
<rscale>  0 0.17066243E+03</rscale>
<asrwt>0</asrwt>
<pdfrwt beam="1">  1        1 0.16947602E+00 0.22722138E+03</pdfrwt>
<pdfrwt beam="2">  1       -1 0.34812579E-02 0.22722138E+03</pdfrwt>
<totfact> 0.40520561E+03</totfact>
</mgrwt>
</event>
<event>
 6    1  0.1795883E-009  0.2817179E+03  0.7546771E-02  0.1096519E+00
          3   -1    0    0  501    0  0.00000000000E+00  0.00000000000E+00  0.17805362399E+03  0.17805362399E+03  0.00000000000E+00 0. -1.
         -3   -1    0    0    0  501 -0.00000000000E+00 -0.00000000000E+00 -0.43930745813E+03  0.43930745813E+03  0.00000000000E+00 0.  1.
          5    1    1    2  502    0  0.16685666019E+02 -0.28493630572E+02 -0.12050071055E+02  0.35462552730E+02  0.47000000000E+01 0. -1.
         -5    1    1    2    0  502  0.23517538271E+03  0.11918296509E+02 -0.61650605225E+02  0.24345922358E+03  0.47000000000E+01 0.  1.
          5    1    1    2  503    0 -0.83012535426E+02 -0.50975853942E+02 -0.86362085318E+02  0.13026940740E+03  0.47000000000E+01 0. -1.
         -5    1    1    2    0  503 -0.16884851330E+03  0.67551188004E+02 -0.10119107253E+03  0.20816989841E+03  0.47000000000E+01 0. -1.
<mgrwt>
<rscale>  0 0.27848534E+03</rscale>
<asrwt>0</asrwt>
<pdfrwt beam="1">  1        3 0.27392865E-01 0.28171790E+03</pdfrwt>
<pdfrwt beam="2">  1       -3 0.67585763E-01 0.28171790E+03</pdfrwt>
<totfact> 0.68268897E+01</totfact>
</mgrwt>
</event>
<event>
 7    1  0.1795883E-009  0.1254040E+03  0.7546771E-02  0.1275627E+00
         -1   -1    0    0    0  501 -0.00000000000E+00  0.00000000000E+00  0.48739994660E+02  0.48739994660E+02  0.00000000000E+00 0.  1.
          1   -1    0    0  501    0  0.00000000000E+00 -0.00000000000E+00 -0.24244085099E+03  0.24244085099E+03  0.00000000000E+00 0. -1.
         25    2    1    2    0    0  0.36147043276E+01  0.10239327176E+02 -0.46261883389E+02  0.13366500075E+03  0.12493302471E+03 0.  0.
          5    1    1    2  502    0 -0.32247822488E+01  0.20993810731E+02 -0.82236191319E+02  0.85064801606E+02  0.47000000000E+01 0. -1.
         -5    1    3    3    0  503 -0.42436300810E+02  0.18962570150E+02 -0.67421800681E+02  0.82025653915E+02  0.47000000000E+01 0. -1.
          5    1    3    3  503    0  0.46051005137E+02 -0.87232429735E+01  0.21159917292E+02  0.51639346839E+02  0.47000000000E+01 0. -1.
         -5    1    1    2    0  502 -0.38992207881E+00 -0.31233137907E+02 -0.65202781627E+02  0.72451043295E+02  0.47000000000E+01 0.  1.
<mgrwt>
<rscale>  0 0.10225364E+03</rscale>
<asrwt>0</asrwt>
<pdfrwt beam="1">  1        1 0.37298592E-01 0.12540403E+03</pdfrwt>
<pdfrwt beam="2">  1       -1 0.74984607E-02 0.12540403E+03</pdfrwt>
<totfact> 0.10237779E+04</totfact>
</mgrwt>
</event>
<event>
 6    1  0.1795883E-009  0.5647122E+03  0.7546771E-02  0.9981449E-01
          2   -1    0    0  501    0  0.00000000000E+00  0.00000000000E+00  0.55578930341E+03  0.55578930341E+03  0.00000000000E+00 0. -1.
         -2   -1    0    0    0  501 -0.00000000000E+00 -0.00000000000E+00 -0.14344457780E+03  0.14344457780E+03  0.00000000000E+00 0.  1.
          5    1    1    2  502    0  0.26562291187E+02  0.12231374000E+02  0.17283348685E+01  0.29668821420E+02  0.47000000000E+01 0. -1.
         -5    1    1    2    0  502 -0.12889079495E+03 -0.29774786785E+02  0.31245486998E+02  0.13600641679E+03  0.47000000000E+01 0.  1.
          5    1    1    2  503    0  0.17720050983E+03  0.10017700285E+03  0.36902841745E+03  0.42147303054E+03  0.47000000000E+01 0. -1.
         -5    1    1    2    0  503 -0.74872006071E+02 -0.82633590061E+02  0.10342486300E+02  0.11208561247E+03  0.47000000000E+01 0.  1.
<mgrwt>
<rscale>  0 0.56471218E+03</rscale>
<asrwt>0</asrwt>
<pdfrwt beam="1">  1        2 0.85506046E-01 0.56471218E+03</pdfrwt>
<pdfrwt beam="2">  1       -2 0.22068397E-01 0.56471218E+03</pdfrwt>
<totfact> 0.97826866E+02</totfact>
</mgrwt>
</event>
<event>
 7    1  0.1795883E-009  0.3360790E+03  0.7546771E-02  0.1081259E+00
         -1   -1    0    0    0  501 -0.00000000000E+00  0.00000000000E+00  0.27871948531E+03  0.27871948531E+03  0.00000000000E+00 0.  1.
          1   -1    0    0  501    0  0.00000000000E+00 -0.00000000000E+00 -0.29832616297E+03  0.29832616297E+03  0.00000000000E+00 0. -1.
         25    2    1    2    0    0  0.92611446609E+02  0.17933468234E+03 -0.38242966542E+02  0.24045034344E+03  0.12496413419E+03 0.  0.
          5    1    1    2  502    0  0.55577738178E+02  0.20871153272E+01 -0.66940561003E+02  0.87157155408E+02  0.47000000000E+01 0. -1.
         -5    1    3    3    0  503  0.51039569877E+02  0.29383209714E+02  0.34714417016E+02  0.68524385843E+02  0.47000000000E+01 0. -1.
          5    1    3    3  503    0  0.41571876732E+02  0.14995147263E+03 -0.72957383558E+02  0.17192595759E+03  0.47000000000E+01 0. -1.
         -5    1    1    2    0  502 -0.14818918479E+03 -0.18142179767E+03  0.85576849886E+02  0.24943814944E+03  0.47000000000E+01 0.  1.
<mgrwt>
<rscale>  0 0.30810338E+03</rscale>
<asrwt>0</asrwt>
<pdfrwt beam="1">  1        1 0.45896333E-01 0.33607899E+03</pdfrwt>
<pdfrwt beam="2">  1       -1 0.42879921E-01 0.33607899E+03</pdfrwt>
<totfact> 0.48202232E+02</totfact>
</mgrwt>
</event>
<event>
 7    1  0.1795883E-009  0.2018898E+03  0.7546771E-02  0.1157161E+00
          2   -1    0    0  501    0  0.00000000000E+00  0.00000000000E+00  0.12338341057E+04  0.12338341057E+04  0.00000000000E+00 0. -1.
         -2   -1    0    0    0  501 -0.00000000000E+00 -0.00000000000E+00 -0.32069348189E+02  0.32069348189E+02  0.00000000000E+00 0.  1.
         25    2    1    2    0    0  0.14834797563E+03  0.55771687255E+02  0.90451253748E+03  0.92676988359E+03  0.12506751659E+03 0.  0.
          5    1    1    2  502    0 -0.19498875391E+02 -0.14645707897E+02  0.25774489611E+02  0.35792697803E+02  0.47000000000E+01 0. -1.
         -5    1    1    2    0  502 -0.12884910024E+03 -0.41125979357E+02  0.27147773046E+03  0.30334087253E+03  0.47000000000E+01 0.  1.
          5    1    3    3  503    0  0.53443546147E+02  0.55246191845E+02  0.17631916897E+03  0.19240294615E+03  0.47000000000E+01 0.  1.
         -5    1    3    3    0  503  0.94904429487E+02  0.52549541007E+00  0.72819336851E+03  0.73436693745E+03  0.47000000000E+01 0.  1.
<mgrwt>
<rscale>  0 0.19144913E+03</rscale>
<asrwt>0</asrwt>
<pdfrwt beam="1">  1        2 0.18982059E+00 0.20188979E+03</pdfrwt>
<pdfrwt beam="2">  1       -2 0.49337468E-02 0.20188979E+03</pdfrwt>
<totfact> 0.37980683E+03</totfact>
</mgrwt>
</event>
<event>
 7    1  0.1795883E-009  0.1429971E+03  0.7546771E-02  0.1210300E+00
         -4   -1    0    0    0  501 -0.00000000000E+00  0.00000000000E+00  0.13804475521E+03  0.13804475521E+03  0.00000000000E+00 0.  1.
          4   -1    0    0  501    0  0.00000000000E+00 -0.00000000000E+00 -0.14591218040E+03  0.14591218040E+03  0.00000000000E+00 0. -1.
         25    2    1    2    0    0  0.46793258187E+02 -0.42576799971E+02  0.62062414991E+01  0.14026898770E+03  0.12503790853E+03 0.  0.
          5    1    3    3  502    0  0.66207315611E+02 -0.11116443044E+02  0.49205596717E+02  0.83368247521E+02  0.47000000000E+01 0. -1.
         -5    1    1    2    0  503 -0.14460518271E+02  0.86527888552E+02 -0.13742575993E+02  0.88922047215E+02  0.47000000000E+01 0.  1.
          5    1    1    2  503    0 -0.32332739915E+02 -0.43951088581E+02 -0.33109070199E+00  0.54765900695E+02  0.47000000000E+01 0. -1.
         -5    1    3    3    0  502 -0.19414057425E+02 -0.31460356927E+02 -0.42999355218E+02  0.56900740179E+02  0.47000000000E+01 0. -1.
<mgrwt>
<rscale>  0 0.14227525E+03</rscale>
<asrwt>0</asrwt>
<pdfrwt beam="1">  1        4 0.22448028E-01 0.14299706E+03</pdfrwt>
<pdfrwt beam="2">  1       -4 0.21237655E-01 0.14299706E+03</pdfrwt>
<totfact> 0.61872139E+02</totfact>
</mgrwt>
</event>
<event>
 7    1  0.1795883E-009  0.1601331E+03  0.7546771E-02  0.1193572E+00
          1   -1    0    0  501    0  0.00000000000E+00  0.00000000000E+00  0.37452540962E+03  0.37452540962E+03  0.00000000000E+00 0. -1.
         -1   -1    0    0    0  501 -0.00000000000E+00 -0.00000000000E+00 -0.89433814960E+02  0.89433814960E+02  0.00000000000E+00 0.  1.
         25    2    1    2    0    0 -0.59113836979E+02 -0.37541996518E+02  0.26669591631E+03  0.30277291442E+03  0.12506349870E+03 0.  0.
          5    1    1    2  502    0  0.10405685661E+03  0.45777999044E+02  0.18381788841E+02  0.11525378417E+03  0.47000000000E+01 0. -1.
         -5    1    3    3    0  503 -0.85975305734E+02 -0.72608188906E+01  0.10481058489E+03  0.13583748154E+03  0.47000000000E+01 0. -1.
          5    1    3    3  503    0  0.26861468755E+02 -0.30281177627E+02  0.16188533142E+03  0.16693543288E+03  0.47000000000E+01 0. -1.
         -5    1    1    2    0  502 -0.44943019628E+02 -0.82360025263E+01  0.13889508648E-01  0.45932525990E+02  0.47000000000E+01 0.  1.
<mgrwt>
<rscale>  0 0.15575732E+03</rscale>
<asrwt>0</asrwt>
<pdfrwt beam="1">  1        1 0.57619293E-01 0.16013315E+03</pdfrwt>
<pdfrwt beam="2">  1       -1 0.13759049E-01 0.16013315E+03</pdfrwt>
<totfact> 0.23889142E+03</totfact>
</mgrwt>
</event>
<event>
 7    1  0.1795883E-009  0.1421478E+03  0.7546771E-02  0.1232010E+00
          4   -1    0    0  501    0  0.00000000000E+00  0.00000000000E+00  0.16682220060E+03  0.16682220060E+03  0.00000000000E+00 0.  1.
         -4   -1    0    0    0  501 -0.00000000000E+00 -0.00000000000E+00 -0.99347883910E+02  0.99347883910E+02  0.00000000000E+00 0. -1.
         25    2    1    2    0    0 -0.59273121810E+02  0.33029231728E+02  0.95701010327E+02  0.17136122518E+03  0.12490697738E+03 0.  0.
          5    1    1    2  502    0  0.20875396703E+02 -0.14669839429E+01 -0.38281030264E+02  0.43880080988E+02  0.47000000000E+01 0. -1.
         -5    1    3    3    0  503 -0.44714987362E+02  0.56939921990E+02  0.11575077189E+03  0.13660862346E+03  0.47000000000E+01 0.  1.
          5    1    3    3  503    0 -0.14558134448E+02 -0.23910690263E+02 -0.20049761561E+02  0.34752601717E+02  0.47000000000E+01 0.  1.
         -5    1    1    2    0  502  0.38397725107E+02 -0.31562247785E+02  0.10054336627E+02  0.50928778344E+02  0.47000000000E+01 0.  1.
<mgrwt>
<rscale>  0 0.12697803E+03</rscale>
<asrwt>0</asrwt>
<pdfrwt beam="1">  1        4 0.25664954E-01 0.14214776E+03</pdfrwt>
<pdfrwt beam="2">  1       -4 0.15284290E-01 0.14214776E+03</pdfrwt>
<totfact> 0.86785554E+02</totfact>
</mgrwt>
</event>
<event>
 7    1  0.1795883E-009  0.1285454E+03  0.7546771E-02  0.1244154E+00
          1   -1    0    0  501    0  0.00000000000E+00  0.00000000000E+00  0.95778507670E+02  0.95778507670E+02  0.00000000000E+00 0. -1.
         -1   -1    0    0    0  501 -0.00000000000E+00 -0.00000000000E+00 -0.13610580861E+03  0.13610580861E+03  0.00000000000E+00 0.  1.
         25    2    1    2    0    0  0.29491824842E+02 -0.61370764732E+01 -0.10106919348E+01  0.12854939503E+03  0.12496597146E+03 0.  0.
          5    1    3    3  502    0 -0.41770143859E+02 -0.28767447114E+02 -0.13272227533E+02  0.52636042358E+02  0.47000000000E+01 0. -1.
         -5    1    1    2    0  503  0.19516415813E+02  0.23480595805E+02  0.90318543030E+01  0.32185295676E+02  0.47000000000E+01 0.  1.
          5    1    1    2  503    0 -0.49008240656E+02 -0.17343519332E+02 -0.48348463303E+02  0.71149625570E+02  0.47000000000E+01 0. -1.
         -5    1    3    3    0  502  0.71261968701E+02  0.22630370640E+02  0.12261535598E+02  0.75913352671E+02  0.47000000000E+01 0. -1.
<mgrwt>
<rscale>  0 0.11936171E+03</rscale>
<asrwt>0</asrwt>
<pdfrwt beam="1">  1        1 0.14735155E-01 0.12854542E+03</pdfrwt>
<pdfrwt beam="2">  1       -1 0.20939355E-01 0.12854542E+03</pdfrwt>
<totfact> 0.67354409E+03</totfact>
</mgrwt>
</event>
<event>
 7    1  0.1795883E-009  0.1984505E+03  0.7546771E-02  0.1151101E+00
          1   -1    0    0  501    0  0.00000000000E+00  0.00000000000E+00  0.67474307850E+03  0.67474307850E+03  0.00000000000E+00 0. -1.
         -1   -1    0    0    0  501 -0.00000000000E+00 -0.00000000000E+00 -0.58347540911E+02  0.58347540911E+02  0.00000000000E+00 0.  1.
         25    2    1    2    0    0 -0.11729278287E+03 -0.99511367462E+02  0.31841873502E+03  0.37507836961E+03  0.12503272921E+03 0.  0.
          5    1    3    3  502    0 -0.13973882373E+03 -0.63588782388E+02  0.26950470866E+03  0.31020211168E+03  0.47000000000E+01 0.  1.
         -5    1    3    3    0  502  0.22446040856E+02 -0.35922585074E+02  0.48914026357E+02  0.64876257929E+02  0.47000000000E+01 0.  1.
          5    1    1    2  503    0  0.13107709054E+03  0.77736741371E+02  0.29444625112E+03  0.33157938630E+03  0.47000000000E+01 0. -1.
         -5    1    1    2    0  503 -0.13784307667E+02  0.21774626091E+02  0.35305514565E+01  0.26432863501E+02  0.47000000000E+01 0.  1.
<mgrwt>
<rscale>  0 0.19839418E+03</rscale>
<asrwt>0</asrwt>
<pdfrwt beam="1">  1        1 0.10380662E+00 0.19845049E+03</pdfrwt>
<pdfrwt beam="2">  1       -1 0.89765453E-02 0.19845049E+03</pdfrwt>
<totfact> 0.21295523E+03</totfact>
</mgrwt>
</event>
<event>
 7    1  0.1795883E-009  0.1538271E+03  0.7546771E-02  0.1208704E+00
         -1   -1    0    0    0  501 -0.00000000000E+00  0.00000000000E+00  0.18981176645E+03  0.18981176645E+03  0.00000000000E+00 0.  1.
          1   -1    0    0  501    0  0.00000000000E+00 -0.00000000000E+00 -0.11315642120E+03  0.11315642120E+03  0.00000000000E+00 0. -1.
         25    2    1    2    0    0 -0.39856079947E+02 -0.80367547295E+02  0.10094033622E+03  0.18398839391E+03  0.12496130542E+03 0.  0.
          5    1    3    3  502    0  0.25504689297E+02 -0.74413816449E+02  0.85745618939E+02  0.11645731588E+03  0.47000000000E+01 0. -1.
         -5    1    3    3    0  502 -0.65360769244E+02 -0.59537308461E+01  0.15194717286E+02  0.67531078035E+02  0.47000000000E+01 0. -1.
          5    1    1    2  503    0  0.47074216501E+02  0.14100912876E+02 -0.62083404099E+01  0.49753905312E+02  0.47000000000E+01 0. -1.
         -5    1    1    2    0  503 -0.72181365543E+01  0.66266634419E+02 -0.18076650558E+02  0.69225888423E+02  0.47000000000E+01 0.  1.
<mgrwt>
<rscale>  0 0.14349370E+03</rscale>
<asrwt>0</asrwt>
<pdfrwt beam="1">  1        1 0.17408680E-01 0.15382710E+03</pdfrwt>
<pdfrwt beam="2">  1       -1 0.29201810E-01 0.15382710E+03</pdfrwt>
<totfact> 0.31793168E+03</totfact>
</mgrwt>
</event>
<event>
 6    1  0.1795883E-009  0.3963030E+03  0.7546771E-02  0.1045067E+00
          1   -1    0    0  501    0  0.00000000000E+00  0.00000000000E+00  0.47410938927E+03  0.47410938927E+03  0.00000000000E+00 0. -1.
         -1   -1    0    0    0  501 -0.00000000000E+00 -0.00000000000E+00 -0.82816365927E+02  0.82816365927E+02  0.00000000000E+00 0.  1.
          5    1    1    2  502    0 -0.12504978658E+03 -0.20844460345E+02  0.55934562029E+02  0.13864597318E+03  0.47000000000E+01 0. -1.
         -5    1    1    2    0  503  0.30709765683E+02 -0.14992996822E+02  0.24715831405E+03  0.24955400591E+03  0.47000000000E+01 0.  1.
          5    1    1    2  503    0  0.20252044292E+02 -0.30029734550E+02  0.87982285494E+00  0.36534837394E+02  0.47000000000E+01 0. -1.
         -5    1    1    2    0  502  0.74087976602E+02  0.65867191717E+02  0.87320324403E+02  0.13219093870E+03  0.47000000000E+01 0.  1.
<mgrwt>
<rscale>  0 0.39630300E+03</rscale>
<asrwt>0</asrwt>
<pdfrwt beam="1">  1        1 0.72939905E-01 0.39630300E+03</pdfrwt>
<pdfrwt beam="2">  1       -1 0.12740980E-01 0.39630300E+03</pdfrwt>
<totfact> 0.20288940E+03</totfact>
</mgrwt>
</event>
<event>
 7    1  0.1795883E-009  0.1258120E+03  0.7546771E-02  0.1249766E+00
          3   -1    0    0  501    0  0.00000000000E+00  0.00000000000E+00  0.14666896176E+03  0.14666896176E+03  0.00000000000E+00 0. -1.
         -3   -1    0    0    0  501 -0.00000000000E+00 -0.00000000000E+00 -0.80962934624E+02  0.80962934624E+02  0.00000000000E+00 0.  1.
         25    2    1    2    0    0  0.93630919860E+01  0.11435261517E+02  0.26970947964E+02  0.12867043977E+03  0.12494085536E+03 0.  0.
          5    1    1    2  502    0  0.31235417233E+02  0.21767573643E+02  0.14747195331E+02  0.41098033068E+02  0.47000000000E+01 0. -1.
         -5    1    3    3    0  503 -0.38382952976E+02  0.36289298148E+02  0.47182096519E+02  0.70981719275E+02  0.47000000000E+01 0. -1.
          5    1    3    3  503    0  0.47746044962E+02 -0.24854036631E+02 -0.20211148556E+02  0.57688720495E+02  0.47000000000E+01 0. -1.
         -5    1    1    2    0  502 -0.40598509219E+02 -0.33202835160E+02  0.23987883845E+02  0.57863423549E+02  0.47000000000E+01 0.  1.
<mgrwt>
<rscale>  0 0.11604600E+03</rscale>
<asrwt>0</asrwt>
<pdfrwt beam="1">  1        3 0.22564456E-01 0.12581196E+03</pdfrwt>
<pdfrwt beam="2">  1       -3 0.12455836E-01 0.12581196E+03</pdfrwt>
<totfact> 0.20858204E+03</totfact>
</mgrwt>
</event>
<event>
 6    1  0.1795883E-009  0.1296582E+03  0.7546771E-02  0.1254232E+00
          2   -1    0    0  501    0  0.00000000000E+00  0.00000000000E+00  0.51724884720E+03  0.51724884720E+03  0.00000000000E+00 0. -1.
         -2   -1    0    0    0  501 -0.00000000000E+00 -0.00000000000E+00 -0.44413734810E+02  0.44413734810E+02  0.00000000000E+00 0.  1.
          5    1    1    2  502    0  0.18365049536E+02 -0.42595753479E+02 -0.46852523956E+01  0.46858455469E+02  0.47000000000E+01 0. -1.
         -5    1    1    2    0  502 -0.25967580179E+02  0.86084162086E+01  0.97878549375E+01  0.29433181178E+02  0.47000000000E+01 0.  1.
          5    1    1    2  503    0  0.15909623281E+02 -0.45967488920E+02  0.19196743670E+03  0.19809016357E+03  0.47000000000E+01 0.  1.
         -5    1    1    2    0  503 -0.83070926389E+01  0.79954826190E+02  0.27576507315E+03  0.28728078179E+03  0.47000000000E+01 0.  1.
<mgrwt>
<rscale>  0 0.11349478E+03</rscale>
<asrwt>0</asrwt>
<pdfrwt beam="1">  1        2 0.79576742E-01 0.12965822E+03</pdfrwt>
<pdfrwt beam="2">  1       -2 0.68328826E-02 0.12965822E+03</pdfrwt>
<totfact> 0.69312571E+03</totfact>
</mgrwt>
</event>
<event>
 7    1  0.1795883E-009  0.1254077E+03  0.7546771E-02  0.1263335E+00
         -2   -1    0    0    0  501 -0.00000000000E+00  0.00000000000E+00  0.42339376646E+02  0.42339376646E+02  0.00000000000E+00 0.  1.
          2   -1    0    0  501    0  0.00000000000E+00 -0.00000000000E+00 -0.36754983792E+03  0.36754983792E+03  0.00000000000E+00 0. -1.
         25    2    1    2    0    0  0.10162142265E+02 -0.29468917055E+01 -0.31472836601E+03  0.33879349692E+03  0.12496053726E+03 0.  0.
          5    1    1    2  502    0  0.19607763021E+02 -0.22973535659E+02 -0.45375292843E+01  0.30901891259E+02  0.47000000000E+01 0. -1.
         -5    1    3    3    0  503  0.24496335880E+02  0.47024200457E+02 -0.66723173665E+02  0.85354658948E+02  0.47000000000E+01 0. -1.
          5    1    3    3  503    0 -0.14334193615E+02 -0.49971092163E+02 -0.24800519235E+03  0.25343883797E+03  0.47000000000E+01 0. -1.
         -5    1    1    2    0  502 -0.29769905286E+02  0.25920427365E+02 -0.59445659798E+01  0.40193826394E+02  0.47000000000E+01 0.  1.
<mgrwt>
<rscale>  0 0.10852028E+03</rscale>
<asrwt>0</asrwt>
<pdfrwt beam="1">  1        2 0.56546130E-01 0.12540769E+03</pdfrwt>
<pdfrwt beam="2">  1       -2 0.65137501E-02 0.12540769E+03</pdfrwt>
<totfact> 0.10747389E+04</totfact>
</mgrwt>
</event>
<event>
 7    1  0.1795883E-009  0.1933509E+03  0.7546771E-02  0.1171686E+00
          1   -1    0    0  501    0  0.00000000000E+00  0.00000000000E+00  0.81993266331E+03  0.81993266331E+03  0.00000000000E+00 0.  1.
         -1   -1    0    0    0  501 -0.00000000000E+00 -0.00000000000E+00 -0.33049261300E+02  0.33049261300E+02  0.00000000000E+00 0. -1.
         25    2    1    2    0    0  0.40888451454E+02 -0.19320812418E+02  0.37828549203E+03  0.40094562357E+03  0.12494927101E+03 0.  0.
          5    1    3    3  502    0  0.51796357251E+02 -0.59428951497E+02  0.31738895685E+03  0.32706651133E+03  0.47000000000E+01 0.  1.
         -5    1    1    2    0  503 -0.77904598620E+02  0.16563213340E+02  0.40682989990E+03  0.41457945436E+03  0.47000000000E+01 0.  1.
          5    1    1    2  503    0  0.37016147166E+02  0.27575990777E+01  0.17680100812E+01  0.37456846682E+02  0.47000000000E+01 0. -1.
         -5    1    3    3    0  502 -0.10907905797E+02  0.40108139079E+02  0.60896535176E+02  0.73879112243E+02  0.47000000000E+01 0.  1.
<mgrwt>
<rscale>  0 0.17604582E+03</rscale>
<asrwt>0</asrwt>
<pdfrwt beam="1">  1        1 0.12614347E+00 0.19335089E+03</pdfrwt>
<pdfrwt beam="2">  1       -1 0.50845024E-02 0.19335089E+03</pdfrwt>
<totfact> 0.37627257E+03</totfact>
</mgrwt>
</event>
<event>
 7    1  0.1960640E-009  0.3969101E+03  0.7546771E-02  0.1084662E+00
         -1   -1    0    0    0  501 -0.00000000000E+00  0.00000000000E+00  0.10413329699E+03  0.10413329699E+03  0.00000000000E+00 0.  1.
          1   -1    0    0  501    0  0.00000000000E+00 -0.00000000000E+00 -0.86573486125E+03  0.86573486125E+03  0.00000000000E+00 0. -1.
         25    2    1    2    0    0 -0.24070492701E+02 -0.33089611066E+02 -0.26125903446E+02  0.13412774501E+03  0.12503350819E+03 0.  0.
          5    1    1    2  502    0  0.10464856757E+03 -0.85185441806E+02 -0.66039998446E+03  0.67406091094E+03  0.47000000000E+01 0. -1.
         -5    1    1    2    0  502 -0.80578074868E+02  0.11827505287E+03 -0.75075676364E+02  0.16167950230E+03  0.47000000000E+01 0.  1.
          5    1    3    3  503    0 -0.54463391269E+02 -0.33599904848E+02 -0.60367685821E+02  0.88099728068E+02  0.47000000000E+01 0. -1.
         -5    1    3    3    0  503  0.30392898568E+02  0.51029378190E+00  0.34241782375E+02  0.46028016939E+02  0.47000000000E+01 0. -1.
<mgrwt>
<rscale>  0 0.30116116E+03</rscale>
<asrwt>0</asrwt>
<pdfrwt beam="1">  1        1 0.13318998E+00 0.39691005E+03</pdfrwt>
<pdfrwt beam="2">  1       -1 0.16020507E-01 0.39691005E+03</pdfrwt>
<totfact> 0.58622163E+02</totfact>
</mgrwt>
</event>
<event>
 6    1  0.1795883E-009  0.1418488E+03  0.7546771E-02  0.1226903E+00
         -2   -1    0    0    0  501 -0.00000000000E+00  0.00000000000E+00  0.26817191989E+02  0.26817191989E+02  0.00000000000E+00 0.  1.
          2   -1    0    0  501    0  0.00000000000E+00 -0.00000000000E+00 -0.56992934299E+03  0.56992934299E+03  0.00000000000E+00 0. -1.
          5    1    1    2  502    0  0.86149630466E+02 -0.23515663604E+02 -0.25434635714E+03  0.26960879929E+03  0.47000000000E+01 0. -1.
         -5    1    1    2    0  502 -0.23123600318E+02  0.45871890807E+02 -0.11499820609E+03  0.12603812384E+03  0.47000000000E+01 0. -1.
          5    1    1    2  503    0 -0.31367151235E+02 -0.35343965666E+02 -0.15431749927E+03  0.16145920434E+03  0.47000000000E+01 0. -1.
         -5    1    1    2    0  503 -0.31658878913E+02  0.12987738462E+02 -0.19450088499E+02  0.39640407503E+02  0.47000000000E+01 0.  1.
<mgrwt>
<rscale>  0 0.13037307E+03</rscale>
<asrwt>0</asrwt>
<pdfrwt beam="1">  1        2 0.87681441E-01 0.14184880E+03</pdfrwt>
<pdfrwt beam="2">  1       -2 0.41257217E-02 0.14184880E+03</pdfrwt>
<totfact> 0.13384786E+04</totfact>
</mgrwt>
</event>
<event>
 7    1  0.1795883E-009  0.1373520E+03  0.7546771E-02  0.1233695E+00
         -2   -1    0    0    0  501 -0.00000000000E+00  0.00000000000E+00  0.53183426734E+02  0.53183426734E+02  0.00000000000E+00 0.  1.
          2   -1    0    0  501    0  0.00000000000E+00 -0.00000000000E+00 -0.32125282663E+03  0.32125282663E+03  0.00000000000E+00 0. -1.
         25    2    1    2    0    0  0.40493520539E+02  0.39793417301E+02 -0.23470964493E+03  0.27194520629E+03  0.12506932692E+03 0.  0.
          5    1    3    3  502    0  0.72117245161E+02  0.14315935504E+02 -0.67874073450E+02  0.10017396321E+03  0.47000000000E+01 0.  1.
         -5    1    1    2    0  503 -0.54954481897E+02 -0.10872173935E+02 -0.59701326898E+00  0.56219619987E+02  0.47000000000E+01 0.  1.
          5    1    1    2  503    0  0.14460961358E+02 -0.28921243365E+02 -0.32762741703E+02  0.46271427092E+02  0.47000000000E+01 0. -1.
         -5    1    3    3    0  502 -0.31623724622E+02  0.25477481797E+02 -0.16683557148E+03  0.17177124307E+03  0.47000000000E+01 0.  1.
<mgrwt>
<rscale>  0 0.12588338E+03</rscale>
<asrwt>0</asrwt>
<pdfrwt beam="1">  1        2 0.49423511E-01 0.13735202E+03</pdfrwt>
<pdfrwt beam="2">  1       -2 0.81820658E-02 0.13735202E+03</pdfrwt>
<totfact> 0.87975147E+03</totfact>
</mgrwt>
</event>
<event>
 7    1  0.1795883E-009  0.1741467E+03  0.7546771E-02  0.1181886E+00
          1   -1    0    0  501    0  0.00000000000E+00  0.00000000000E+00  0.38779068107E+03  0.38779068107E+03  0.00000000000E+00 0. -1.
         -1   -1    0    0    0  501 -0.00000000000E+00 -0.00000000000E+00 -0.98848360644E+02  0.98848360644E+02  0.00000000000E+00 0.  1.
         25    2    1    2    0    0  0.66939883873E+02 -0.27603922793E+02  0.27662945681E+03  0.31205755767E+03  0.12495254427E+03 0.  0.
          5    1    1    2  502    0  0.13162225020E+02 -0.37845991127E+02  0.50126554101E+02  0.64345354439E+02  0.47000000000E+01 0. -1.
         -5    1    3    3    0  503  0.31105513357E+02 -0.13402009722E+01 -0.35906851323E+00  0.31489173220E+02  0.47000000000E+01 0.  1.
          5    1    3    3  503    0  0.35834370516E+02 -0.26263721821E+02  0.27698852532E+03  0.28056838445E+03  0.47000000000E+01 0.  1.
         -5    1    1    2    0  502 -0.80102108893E+02  0.65449913920E+02 -0.37813690485E+02  0.11023612960E+03  0.47000000000E+01 0.  1.
<mgrwt>
<rscale>  0 0.16618452E+03</rscale>
<asrwt>0</asrwt>
<pdfrwt beam="1">  1        1 0.59660104E-01 0.17414674E+03</pdfrwt>
<pdfrwt beam="2">  1       -1 0.15207440E-01 0.17414674E+03</pdfrwt>
<totfact> 0.19583236E+03</totfact>
</mgrwt>
</event>
<event>
 7    1  0.1795883E-009  0.1745181E+03  0.7546771E-02  0.1178316E+00
          1   -1    0    0  501    0  0.00000000000E+00  0.00000000000E+00  0.15065160508E+03  0.15065160508E+03  0.00000000000E+00 0. -1.
         -1   -1    0    0    0  501 -0.00000000000E+00 -0.00000000000E+00 -0.31589045905E+03  0.31589045905E+03  0.00000000000E+00 0.  1.
         25    2    1    2    0    0 -0.59545904798E+02 -0.70853511110E+02 -0.23234223985E+03  0.27956768467E+03  0.12493694040E+03 0.  0.
          5    1    1    2  502    0 -0.21055918123E+01  0.95034749435E+02  0.73535196138E+02  0.12027282398E+03  0.47000000000E+01 0. -1.
         -5    1    1    2    0  502  0.61651496611E+02 -0.24181238326E+02 -0.64318102558E+01  0.66701555487E+02  0.47000000000E+01 0.  1.
          5    1    3    3  503    0  0.31138038151E+02  0.30545413139E+01 -0.21038186766E+02  0.37994775232E+02  0.47000000000E+01 0. -1.
         -5    1    3    3    0  503 -0.90683942949E+02 -0.73908052424E+02 -0.21130405309E+03  0.24157290944E+03  0.47000000000E+01 0.  1.
<mgrwt>
<rscale>  0 0.16955144E+03</rscale>
<asrwt>0</asrwt>
<pdfrwt beam="1">  1        1 0.23177170E-01 0.17451806E+03</pdfrwt>
<pdfrwt beam="2">  1       -1 0.48598531E-01 0.17451806E+03</pdfrwt>
<totfact> 0.90953403E+02</totfact>
</mgrwt>
</event>
<event>
 7    1  0.1795883E-009  0.2364498E+03  0.7546771E-02  0.1147974E+00
         -1   -1    0    0    0  501 -0.00000000000E+00  0.00000000000E+00  0.67017958726E+02  0.67017958726E+02  0.00000000000E+00 0.  1.
          1   -1    0    0  501    0  0.00000000000E+00 -0.00000000000E+00 -0.49171328756E+03  0.49171328756E+03  0.00000000000E+00 0. -1.
         25    2    1    2    0    0  0.14740979202E+02  0.10135540394E+02 -0.16043246092E+03  0.20412810910E+03  0.12493872402E+03 0.  0.
          5    1    1    2  502    0  0.80029158386E+01 -0.12133797815E+03 -0.15412858976E+03  0.19637887815E+03  0.47000000000E+01 0. -1.
         -5    1    1    2    0  502 -0.22743895041E+02  0.11120243775E+03 -0.11013427816E+03  0.15822425904E+03  0.47000000000E+01 0.  1.
          5    1    3    3  503    0  0.42397739704E+02  0.55934705275E+02 -0.10924830063E+03  0.12993667988E+03  0.47000000000E+01 0.  1.
         -5    1    3    3    0  503 -0.27656760502E+02 -0.45799164881E+02 -0.51184160291E+02  0.74191429222E+02  0.47000000000E+01 0.  1.
<mgrwt>
<rscale>  0 0.20210648E+03</rscale>
<asrwt>0</asrwt>
<pdfrwt beam="1">  1        1 0.75648202E-01 0.23644983E+03</pdfrwt>
<pdfrwt beam="2">  1       -1 0.10310455E-01 0.23644983E+03</pdfrwt>
<totfact> 0.26662667E+03</totfact>
</mgrwt>
</event>
<event>
 7    1  0.1795883E-009  0.1752410E+03  0.7546771E-02  0.1175168E+00
          1   -1    0    0  501    0  0.00000000000E+00  0.00000000000E+00  0.97968469663E+03  0.97968469663E+03  0.00000000000E+00 0. -1.
         -1   -1    0    0    0  501 -0.00000000000E+00 -0.00000000000E+00 -0.29968764656E+02  0.29968764656E+02  0.00000000000E+00 0.  1.
         25    2    1    2    0    0 -0.11027976164E+03 -0.54203342400E+02  0.55060409074E+03  0.57781854627E+03  0.12493910325E+03 0.  0.
          5    1    1    2  502    0  0.12181563943E+03  0.21253754956E+02  0.35123096176E+03  0.37239233425E+03  0.47000000000E+01 0. -1.
         -5    1    1    2    0  502 -0.11535877789E+02  0.32949587444E+02  0.47880879473E+02  0.59442580766E+02  0.47000000000E+01 0.  1.
          5    1    3    3  503    0 -0.30008693672E+01 -0.33022192925E+02  0.32858041582E+03  0.33028268211E+03  0.47000000000E+01 0. -1.
         -5    1    3    3    0  503 -0.10727889227E+03 -0.21181149475E+02  0.22202367492E+03  0.24753586416E+03  0.47000000000E+01 0. -1.
<mgrwt>
<rscale>  0 0.17259579E+03</rscale>
<asrwt>0</asrwt>
<pdfrwt beam="1">  1        1 0.15072070E+00 0.17524100E+03</pdfrwt>
<pdfrwt beam="2">  1       -1 0.46105799E-02 0.17524100E+03</pdfrwt>
<totfact> 0.32597551E+03</totfact>
</mgrwt>
</event>
<event>
 6    1  0.1795883E-009  0.2388068E+03  0.7546771E-02  0.1162675E+00
         -2   -1    0    0    0  501 -0.00000000000E+00  0.00000000000E+00  0.24295512132E+02  0.24295512132E+02  0.00000000000E+00 0. -1.
          2   -1    0    0  501    0  0.00000000000E+00 -0.00000000000E+00 -0.10996855325E+04  0.10996855325E+04  0.00000000000E+00 0.  1.
          5    1    1    2  502    0 -0.49280029290E+02  0.24187984963E+02 -0.32886422065E+02  0.64165307290E+02  0.47000000000E+01 0. -1.
         -5    1    1    2    0  502  0.77187305854E+01  0.25006640271E+02 -0.43725544621E+02  0.51175424883E+02  0.47000000000E+01 0.  1.
          5    1    1    2  503    0  0.18613502659E+02  0.41932796635E+02 -0.28995793934E+03  0.29360265411E+03  0.47000000000E+01 0.  1.
         -5    1    1    2    0  503  0.22947796046E+02 -0.91127421869E+02 -0.70882011434E+03  0.71503765834E+03  0.47000000000E+01 0.  1.
<mgrwt>
<rscale>  0 0.18540207E+03</rscale>
<asrwt>0</asrwt>
<pdfrwt beam="1">  1        2 0.16918242E+00 0.23880677E+03</pdfrwt>
<pdfrwt beam="2">  1       -2 0.37377703E-02 0.23880677E+03</pdfrwt>
<totfact> 0.69163300E+03</totfact>
</mgrwt>
</event>
<event>
 7    1  0.1795883E-009  0.4120728E+03  0.7546771E-02  0.1039678E+00
         -2   -1    0    0    0  501 -0.00000000000E+00  0.00000000000E+00  0.26592637833E+02  0.26592637833E+02  0.00000000000E+00 0. -1.
          2   -1    0    0  501    0  0.00000000000E+00 -0.00000000000E+00 -0.15963439151E+04  0.15963439151E+04  0.00000000000E+00 0.  1.
         25    2    1    2    0    0  0.31656914252E+02  0.12783819543E+03 -0.75805259780E+03  0.77950601073E+03  0.12506444461E+03 0.  0.
          5    1    3    3  502    0 -0.45604842043E+02  0.54687110074E+02 -0.38458033600E+03  0.39114524983E+03  0.47000000000E+01 0.  1.
         -5    1    1    2    0  503 -0.32502823707E+01  0.38524306520E+02 -0.34386801793E+03  0.34606645357E+03  0.47000000000E+01 0.  1.
          5    1    1    2  503    0 -0.28406631882E+02 -0.16636250195E+03 -0.46783066156E+03  0.49736408865E+03  0.47000000000E+01 0. -1.
         -5    1    3    3    0  502  0.77261756296E+02  0.73151085357E+02 -0.37347226180E+03  0.38836076090E+03  0.47000000000E+01 0.  1.
<mgrwt>
<rscale>  0 0.41207279E+03</rscale>
<asrwt>0</asrwt>
<pdfrwt beam="1">  1        2 0.24559139E+00 0.41207279E+03</pdfrwt>
<pdfrwt beam="2">  1       -2 0.40911748E-02 0.41207279E+03</pdfrwt>
<totfact> 0.32171628E+03</totfact>
</mgrwt>
</event>
<event>
 7    1  0.1795883E-009  0.1809695E+03  0.7546771E-02  0.1177590E+00
          2   -1    0    0  501    0  0.00000000000E+00  0.00000000000E+00  0.86393854425E+03  0.86393854425E+03  0.00000000000E+00 0. -1.
         -2   -1    0    0    0  501 -0.00000000000E+00 -0.00000000000E+00 -0.39313186284E+02  0.39313186284E+02  0.00000000000E+00 0.  1.
         25    2    1    2    0    0  0.12408443431E+02  0.13018175943E+03  0.23376867023E+03  0.29563111524E+03  0.12509478469E+03 0.  0.
          5    1    1    2  502    0  0.15345846635E+01 -0.77109014685E+02  0.44607616673E+03  0.45271866719E+03  0.47000000000E+01 0. -1.
         -5    1    1    2    0  502 -0.13943028094E+02 -0.53072744743E+02  0.14478052101E+03  0.15490194811E+03  0.47000000000E+01 0.  1.
          5    1    3    3  503    0 -0.21065303203E+02  0.14306922271E+03  0.19097588501E+03  0.23959638591E+03  0.47000000000E+01 0.  1.
         -5    1    3    3    0  503  0.33473746634E+02 -0.12887463281E+02  0.42792785220E+02  0.56034729324E+02  0.47000000000E+01 0.  1.
<mgrwt>
<rscale>  0 0.17024712E+03</rscale>
<asrwt>0</asrwt>
<pdfrwt beam="1">  1        2 0.13291361E+00 0.18096951E+03</pdfrwt>
<pdfrwt beam="2">  1       -2 0.60481832E-02 0.18096951E+03</pdfrwt>
<totfact> 0.46202799E+03</totfact>
</mgrwt>
</event>
<event>
 7    1  0.1795883E-009  0.1505126E+03  0.7546771E-02  0.1204857E+00
         -2   -1    0    0    0  501 -0.00000000000E+00  0.00000000000E+00  0.93303551682E+02  0.93303551682E+02  0.00000000000E+00 0.  1.
          2   -1    0    0  501    0  0.00000000000E+00 -0.00000000000E+00 -0.21873361191E+03  0.21873361191E+03  0.00000000000E+00 0. -1.
         25    2    1    2    0    0 -0.83899778033E+02 -0.13115001298E+01 -0.60896467040E+02  0.16236506136E+03  0.12495255366E+03 0.  0.
          5    1    3    3  502    0 -0.72611636344E+02  0.33375946743E+02 -0.86263867044E+02  0.11768580335E+03  0.47000000000E+01 0. -1.
         -5    1    1    2    0  503 -0.13406082651E+02  0.24577641956E+02  0.34840472946E+01  0.28600911205E+02  0.47000000000E+01 0.  1.
          5    1    1    2  503    0  0.97305860684E+02 -0.23266141826E+02 -0.68017640478E+02  0.12107119102E+03  0.47000000000E+01 0. -1.
         -5    1    3    3    0  502 -0.11288141689E+02 -0.34687446872E+02  0.25367400004E+02  0.44679258010E+02  0.47000000000E+01 0. -1.
<mgrwt>
<rscale>  0 0.14648704E+03</rscale>
<asrwt>0</asrwt>
<pdfrwt beam="1">  1        2 0.33651325E-01 0.15051257E+03</pdfrwt>
<pdfrwt beam="2">  1       -2 0.14354393E-01 0.15051257E+03</pdfrwt>
<totfact> 0.54669835E+03</totfact>
</mgrwt>
</event>
<event>
 7    1  0.1795883E-009  0.2585190E+03  0.7546771E-02  0.1125652E+00
          1   -1    0    0  501    0  0.00000000000E+00  0.00000000000E+00  0.83266835616E+03  0.83266835616E+03  0.00000000000E+00 0. -1.
         -1   -1    0    0    0  501 -0.00000000000E+00 -0.00000000000E+00 -0.85425608687E+02  0.85425608687E+02  0.00000000000E+00 0.  1.
         25    2    1    2    0    0 -0.83351039494E+02 -0.70453860152E+02  0.48281175175E+02  0.17285619826E+03  0.12504819553E+03 0.  0.
          5    1    1    2  502    0 -0.59169360524E+02 -0.34979209047E+02  0.31285521182E+03  0.32035141931E+03  0.47000000000E+01 0. -1.
         -5    1    1    2    0  502  0.14252040002E+03  0.10543306920E+03  0.38610636047E+03  0.42488634727E+03  0.47000000000E+01 0.  1.
          5    1    3    3  503    0  0.16801571899E+02 -0.26613379850E+02 -0.25583628910E+02  0.40831077301E+02  0.47000000000E+01 0.  1.
         -5    1    3    3    0  503 -0.10015261139E+03 -0.43840480302E+02  0.73864804085E+02  0.13202512096E+03  0.47000000000E+01 0.  1.
<mgrwt>
<rscale>  0 0.23140937E+03</rscale>
<asrwt>0</asrwt>
<pdfrwt beam="1">  1        1 0.12810282E+00 0.25851895E+03</pdfrwt>
<pdfrwt beam="2">  1       -1 0.13142402E-01 0.25851895E+03</pdfrwt>
<totfact> 0.86110763E+02</totfact>
</mgrwt>
</event>
<event>
 7    1  0.1795883E-009  0.3146115E+03  0.7546771E-02  0.1109972E+00
          2   -1    0    0  501    0  0.00000000000E+00  0.00000000000E+00  0.10289267763E+04  0.10289267763E+04  0.00000000000E+00 0. -1.
         -2   -1    0    0    0  501 -0.00000000000E+00 -0.00000000000E+00 -0.92193351200E+02  0.92193351200E+02  0.00000000000E+00 0.  1.
         25    2    1    2    0    0  0.29212883311E+02  0.46609720487E+02  0.73458369827E+03  0.74716167515E+03  0.12494599014E+03 0.  0.
          5    1    3    3  502    0  0.75042047026E+02  0.46159599343E+02  0.41505489606E+03  0.42432849796E+03  0.47000000000E+01 0. -1.
         -5    1    1    2    0  503  0.16656952229E+02 -0.11868319520E+03  0.24902140215E+03  0.27639989799E+03  0.47000000000E+01 0. -1.
          5    1    1    2  503    0 -0.45869835540E+02  0.72073474716E+02 -0.46871675359E+02  0.97558554320E+02  0.47000000000E+01 0.  1.
         -5    1    3    3    0  502 -0.45829163715E+02  0.45012114360E+00  0.31952880221E+03  0.32283317719E+03  0.47000000000E+01 0. -1.
<mgrwt>
<rscale>  0 0.25534598E+03</rscale>
<asrwt>0</asrwt>
<pdfrwt beam="1">  1        2 0.15829642E+00 0.31461153E+03</pdfrwt>
<pdfrwt beam="2">  1       -2 0.14183593E-01 0.31461153E+03</pdfrwt>
<totfact> 0.94712336E+02</totfact>
</mgrwt>
</event>
<event>
 7    1  0.1795883E-009  0.3193639E+03  0.7546771E-02  0.1085147E+00
         -2   -1    0    0    0  501 -0.00000000000E+00  0.00000000000E+00  0.90150235448E+02  0.90150235448E+02  0.00000000000E+00 0.  1.
          2   -1    0    0  501    0  0.00000000000E+00 -0.00000000000E+00 -0.91571320104E+03  0.91571320104E+03  0.00000000000E+00 0. -1.
         25    2    1    2    0    0 -0.21233950044E+03 -0.38073291326E+02 -0.43479723742E+03  0.50119406199E+03  0.12493682865E+03 0.  0.
          5    1    3    3  502    0 -0.13178303981E+03 -0.76009561643E+02 -0.20999084773E+03  0.25935008998E+03  0.47000000000E+01 0. -1.
         -5    1    3    3    0  502 -0.80556460625E+02  0.37936270317E+02 -0.22480638969E+03  0.24184397201E+03  0.47000000000E+01 0. -1.
          5    1    1    2  503    0  0.61496514940E+02  0.12788374978E+03 -0.20127462619E+03  0.24631207838E+03  0.47000000000E+01 0. -1.
         -5    1    1    2    0  503  0.15084298550E+03 -0.89810458459E+02 -0.18949110198E+03  0.25835729611E+03  0.47000000000E+01 0.  1.
<mgrwt>
<rscale>  0 0.30018694E+03</rscale>
<asrwt>0</asrwt>
<pdfrwt beam="1">  1        2 0.14087895E+00 0.31936394E+03</pdfrwt>
<pdfrwt beam="2">  1       -2 0.13869267E-01 0.31936394E+03</pdfrwt>
<totfact> 0.11574119E+03</totfact>
</mgrwt>
</event>
<event>
 6    1  0.1795883E-009  0.2112076E+03  0.7546771E-02  0.1175751E+00
         -1   -1    0    0    0  501 -0.00000000000E+00  0.00000000000E+00  0.15832454505E+03  0.15832454505E+03  0.00000000000E+00 0.  1.
          1   -1    0    0  501    0  0.00000000000E+00 -0.00000000000E+00 -0.14743614912E+03  0.14743614912E+03  0.00000000000E+00 0. -1.
          5    1    1    2  502    0  0.19313860267E+02  0.78450973007E+02 -0.14963290691E+02  0.82301703704E+02  0.47000000000E+01 0. -1.
         -5    1    1    2    0  503 -0.10428635554E+03 -0.75234116834E+02  0.89809167021E+01  0.12899055451E+03  0.47000000000E+01 0. -1.
          5    1    1    2  503    0  0.25861001000E+02  0.12152480860E+02  0.16254208325E+02  0.33207882379E+02  0.47000000000E+01 0. -1.
         -5    1    1    2    0  502  0.59111494275E+02 -0.15369337033E+02  0.61656159195E+00  0.61260553576E+02  0.47000000000E+01 0.  1.
<mgrwt>
<rscale>  0 0.17202603E+03</rscale>
<asrwt>0</asrwt>
<pdfrwt beam="1">  1        1 0.22682484E-01 0.21120755E+03</pdfrwt>
<pdfrwt beam="2">  1       -1 0.24357623E-01 0.21120755E+03</pdfrwt>
<totfact> 0.31079996E+03</totfact>
</mgrwt>
</event>
<event>
 7    1  0.1795883E-009  0.1798443E+03  0.7546771E-02  0.1179224E+00
         -1   -1    0    0    0  501 -0.00000000000E+00  0.00000000000E+00  0.85667705520E+03  0.85667705520E+03  0.00000000000E+00 0.  1.
          1   -1    0    0  501    0  0.00000000000E+00 -0.00000000000E+00 -0.29927259891E+02  0.29927259891E+02  0.00000000000E+00 0. -1.
         25    2    1    2    0    0  0.11915124950E+02 -0.12865885216E+03  0.50357677457E+03  0.53472754367E+03  0.12509559400E+03 0.  0.
          5    1    1    2  502    0 -0.23040328158E+02  0.23561168660E+02  0.83791857580E+02  0.90161803370E+02  0.47000000000E+01 0. -1.
         -5    1    3    3    0  503 -0.41283026058E+02 -0.40043715623E+02  0.30911106949E+03  0.31445115786E+03  0.47000000000E+01 0. -1.
          5    1    3    3  503    0  0.53198151008E+02 -0.88615136535E+02  0.19446570508E+03  0.22027638581E+03  0.47000000000E+01 0. -1.
         -5    1    1    2    0  502  0.11125203208E+02  0.10509768350E+03  0.23938116316E+03  0.26171496805E+03  0.47000000000E+01 0.  1.
<mgrwt>
<rscale>  0 0.16868709E+03</rscale>
<asrwt>0</asrwt>
<pdfrwt beam="1">  1        1 0.46041945E-02 0.17984432E+03</pdfrwt>
<pdfrwt beam="2">  1       -1 0.13179645E+00 0.17984432E+03</pdfrwt>
<totfact> 0.97367877E+02</totfact>
</mgrwt>
</event>
<event>
 6    1  0.1795883E-009  0.1915189E+03  0.7546771E-02  0.1164715E+00
         -1   -1    0    0    0  501 -0.00000000000E+00  0.00000000000E+00  0.38516590495E+02  0.38516590495E+02  0.00000000000E+00 0.  1.
          1   -1    0    0  501    0  0.00000000000E+00 -0.00000000000E+00 -0.89218267780E+03  0.89218267780E+03  0.00000000000E+00 0. -1.
          5    1    1    2  502    0 -0.26042392111E+02  0.16785665335E+02 -0.68011900744E+01  0.32067287600E+02  0.47000000000E+01 0.  1.
         -5    1    1    2    0  503  0.38634874653E+02  0.60242291604E+02 -0.19507056787E+03  0.20783744534E+03  0.47000000000E+01 0.  1.
          5    1    1    2  503    0  0.84192447197E+02  0.17368575995E+02 -0.34352729254E+03  0.35415127604E+03  0.47000000000E+01 0. -1.
         -5    1    1    2    0  502 -0.96784929739E+02 -0.94396532934E+02 -0.30826703682E+03  0.33664325931E+03  0.47000000000E+01 0.  1.
<mgrwt>
<rscale>  0 0.18322827E+03</rscale>
<asrwt>0</asrwt>
<pdfrwt beam="1">  1        1 0.13725886E+00 0.19151888E+03</pdfrwt>
<pdfrwt beam="2">  1       -1 0.59256299E-02 0.19151888E+03</pdfrwt>
<totfact> 0.26188759E+03</totfact>
</mgrwt>
</event>
