<event>
 8    1  0.1893090E-003  0.1010756E+03  0.7546771E-02  0.1278294E+00
          1   -1    0    0  501    0  0.00000000000E+00  0.00000000000E+00  0.61641884032E+02  0.61641884032E+02  0.00000000000E+00 0. -1.
         -1   -1    0    0    0  501 -0.00000000000E+00 -0.00000000000E+00 -0.17502612635E+03  0.17502612635E+03  0.00000000000E+00 0.  1.
         23    2    1    2    0    0 -0.26592106104E+02  0.31427186183E+02 -0.85183836142E+02  0.13218385933E+03  0.92311855087E+02 0.  0.
         23    2    1    2    0    0  0.26592106104E+02 -0.31427186183E+02 -0.28200406180E+02  0.10448415105E+03  0.91797967158E+02 0.  0.
          5    1    3    3  502    0 -0.50131864591E+02  0.47732314409E+02 -0.73001853216E+02  0.10071215547E+03  0.47000000000E+01 0. -1.
         -5    1    3    3    0  502  0.23539758487E+02 -0.16305128225E+02 -0.12181982926E+02  0.31471703864E+02  0.47000000000E+01 0.  1.
          5    1    4    4  503    0 -0.27590406639E+02 -0.36380292824E+02 -0.10618348099E+02  0.47112583890E+02  0.47000000000E+01 0. -1.
         -5    1    4    4    0  503  0.54182512743E+02  0.49531066404E+01 -0.17582058081E+02  0.57371567164E+02  0.47000000000E+01 0.  1.
<mgrwt>
<rscale>  0 0.10095817E+03</rscale>
<asrwt>0</asrwt>
<pdfrwt beam="1">  1        1 0.94833669E-02 0.10107565E+03</pdfrwt>
<pdfrwt beam="2">  1       -1 0.26927096E-01 0.10107565E+03</pdfrwt>
<totfact> 0.78056851E+03</totfact>
</mgrwt>
</event>
<event>
 8    1  0.1893090E-003  0.1004237E+03  0.7546771E-02  0.1281100E+00
          1   -1    0    0  501    0  0.00000000000E+00  0.00000000000E+00  0.10416506213E+03  0.10416506213E+03  0.00000000000E+00 0. -1.
         -1   -1    0    0    0  501 -0.00000000000E+00 -0.00000000000E+00 -0.93780575795E+02  0.93780575795E+02  0.00000000000E+00 0.  1.
         23    2    1    2    0    0 -0.96660192104E+01  0.41950402485E+02  0.42919606350E+01  0.97337279232E+02  0.87194362238E+02 0.  0.
         23    2    1    2    0    0  0.96660192104E+01 -0.41950402485E+02  0.60925257020E+01  0.10060835869E+03  0.90728467273E+02 0.  0.
          5    1    3    3  502    0 -0.11550584297E+02 -0.25986818342E+02  0.47342613420E+01  0.29210168702E+02  0.47000000000E+01 0. -1.
         -5    1    3    3    0  502  0.18845650861E+01  0.67937220827E+02 -0.44230070696E+00  0.68127110530E+02  0.47000000000E+01 0.  1.
          5    1    4    4  503    0  0.20502167971E+02 -0.66417556598E+02  0.16360429233E+02  0.71563848141E+02  0.47000000000E+01 0. -1.
         -5    1    4    4    0  503 -0.10836148761E+02  0.24467154113E+02 -0.10267903531E+02  0.29044510554E+02  0.47000000000E+01 0.  1.
<mgrwt>
<rscale>  0 0.99618815E+02</rscale>
<asrwt>0</asrwt>
<pdfrwt beam="1">  1        1 0.16025394E-01 0.10042372E+03</pdfrwt>
<pdfrwt beam="2">  1       -1 0.14427781E-01 0.10042372E+03</pdfrwt>
<totfact> 0.10666822E+04</totfact>
</mgrwt>
</event>
<event>
 8    1  0.1893090E-003  0.1024791E+03  0.7546771E-02  0.1275368E+00
         -3   -1    0    0    0  501 -0.00000000000E+00  0.00000000000E+00  0.71279886659E+02  0.71279886659E+02  0.00000000000E+00 0.  1.
          3   -1    0    0  501    0  0.00000000000E+00 -0.00000000000E+00 -0.15489766755E+03  0.15489766755E+03  0.00000000000E+00 0. -1.
         23    2    1    2    0    0 -0.35527895952E+02  0.29564643810E+02 -0.15978190761E+02  0.10371726974E+03  0.91464036141E+02 0.  0.
         23    2    1    2    0    0  0.35527895952E+02 -0.29564643810E+02 -0.67639590129E+02  0.12246028447E+03  0.91022566242E+02 0.  0.
          5    1    3    3  502    0  0.93032132955E+01 -0.24944541429E+02 -0.18798456013E+02  0.32927980096E+02  0.47000000000E+01 0. -1.
         -5    1    4    4    0  503 -0.72045335081E+01 -0.46628107537E+02 -0.98272954706E+01  0.48422633673E+02  0.47000000000E+01 0.  1.
          5    1    4    4  503    0  0.42732429461E+02  0.17063463727E+02 -0.57812294658E+02  0.74037650797E+02  0.47000000000E+01 0. -1.
         -5    1    3    3    0  502 -0.44831109248E+02  0.54509185239E+02  0.28202652521E+01  0.70789289641E+02  0.47000000000E+01 0.  1.
<mgrwt>
<rscale>  0 0.10238052E+03</rscale>
<asrwt>0</asrwt>
<pdfrwt beam="1">  1        3 0.23830410E-01 0.10247912E+03</pdfrwt>
<pdfrwt beam="2">  1       -3 0.10966136E-01 0.10247912E+03</pdfrwt>
<totfact> 0.22515095E+03</totfact>
</mgrwt>
</event>
<event>
 8    1  0.1893090E-003  0.9615274E+02  0.7546771E-02  0.1290164E+00
          2   -1    0    0  501    0  0.00000000000E+00  0.00000000000E+00  0.27238865308E+02  0.27238865308E+02  0.00000000000E+00 0. -1.
         -2   -1    0    0    0  501 -0.00000000000E+00 -0.00000000000E+00 -0.36401350373E+03  0.36401350373E+03  0.00000000000E+00 0.  1.
         23    2    1    2    0    0  0.90941382153E+01  0.63548040535E+01 -0.10608324772E+03  0.14132464701E+03  0.92714149517E+02 0.  0.
         23    2    1    2    0    0 -0.90941382153E+01 -0.63548040535E+01 -0.23069139070E+03  0.24992772203E+03  0.95510531412E+02 0.  0.
          5    1    4    4  502    0 -0.16127415062E+02  0.36207206129E+02 -0.49373003609E+02  0.63488887040E+02  0.47000000000E+01 0. -1.
         -5    1    4    4    0  502  0.70332768465E+01 -0.42562010183E+02 -0.18131838710E+03  0.18643883499E+03  0.47000000000E+01 0.  1.
          5    1    3    3  503    0  0.18912734837E+02  0.45006274435E+02 -0.37064131761E+02  0.61474353521E+02  0.47000000000E+01 0. -1.
         -5    1    3    3    0  503 -0.98185966221E+01 -0.38651470382E+02 -0.69019115957E+02  0.79850293485E+02  0.47000000000E+01 0.  1.
<mgrwt>
<rscale>  0 0.95450799E+02</rscale>
<asrwt>0</asrwt>
<pdfrwt beam="1">  1        2 0.41905949E-02 0.96152735E+02</pdfrwt>
<pdfrwt beam="2">  1       -2 0.56002075E-01 0.96152735E+02</pdfrwt>
<totfact> 0.55699690E+03</totfact>
</mgrwt>
</event>
<event>
 8    1  0.1893090E-003  0.1181979E+03  0.7546771E-02  0.1246110E+00
          1   -1    0    0  501    0  0.00000000000E+00  0.00000000000E+00  0.21381275372E+03  0.21381275372E+03  0.00000000000E+00 0. -1.
         -1   -1    0    0    0  501 -0.00000000000E+00 -0.00000000000E+00 -0.68160358579E+02  0.68160358579E+02  0.00000000000E+00 0.  1.
         23    2    1    2    0    0  0.60787965025E+02 -0.40431405424E+02  0.10156267987E+03  0.15581983906E+03  0.92924534251E+02 0.  0.
         23    2    1    2    0    0 -0.60787965025E+02  0.40431405424E+02  0.44089715265E+02  0.12615327323E+03  0.92956280685E+02 0.  0.
          5    1    4    4  502    0 -0.26061136529E+02  0.66901079857E+02  0.15064818744E+02  0.73511741151E+02  0.47000000000E+01 0. -1.
         -5    1    4    4    0  502 -0.34726828496E+02 -0.26469674433E+02  0.29024896520E+02  0.52641532083E+02  0.47000000000E+01 0.  1.
          5    1    3    3  503    0  0.23239136635E+02 -0.63063903896E+02  0.85582348408E+02  0.10891988710E+03  0.47000000000E+01 0. -1.
         -5    1    3    3    0  503  0.37548828390E+02  0.22632498472E+02  0.15980331464E+02  0.46899951964E+02  0.47000000000E+01 0.  1.
<mgrwt>
<rscale>  0 0.11819167E+03</rscale>
<asrwt>0</asrwt>
<pdfrwt beam="1">  1        1 0.32894270E-01 0.11819791E+03</pdfrwt>
<pdfrwt beam="2">  1       -1 0.10486209E-01 0.11819791E+03</pdfrwt>
<totfact> 0.71670050E+03</totfact>
</mgrwt>
</event>
<event>
 8    1  0.1893090E-003  0.2834130E+03  0.7546771E-02  0.1093887E+00
         -1   -1    0    0    0  501 -0.00000000000E+00  0.00000000000E+00  0.10587495769E+03  0.10587495769E+03  0.00000000000E+00 0.  1.
          1   -1    0    0  501    0  0.00000000000E+00 -0.00000000000E+00 -0.85692247685E+03  0.85692247685E+03  0.00000000000E+00 0. -1.
         23    2    1    2    0    0 -0.94500802159E+02  0.25065305270E+03 -0.53911581842E+03  0.60890767497E+03  0.91462213673E+02 0.  0.
         23    2    1    2    0    0  0.94500802159E+02 -0.25065305270E+03 -0.21193170074E+03  0.35388975957E+03  0.92550319911E+02 0.  0.
          5    1    4    4  502    0  0.42174442661E+02 -0.75060768238E+02 -0.12288855486E+03  0.15012158225E+03  0.47000000000E+01 0. -1.
         -5    1    4    4    0  502  0.52326359498E+02 -0.17559228446E+03 -0.89043145882E+02  0.20376817732E+03  0.47000000000E+01 0.  1.
          5    1    3    3  503    0 -0.50736209220E+02  0.12722515206E+03 -0.37264942110E+03  0.39705173881E+03  0.47000000000E+01 0.  1.
         -5    1    3    3    0  503 -0.43764592939E+02  0.12342790064E+03 -0.16646639732E+03  0.21185593616E+03  0.47000000000E+01 0. -1.
<mgrwt>
<rscale>  0 0.28332457E+03</rscale>
<asrwt>0</asrwt>
<pdfrwt beam="1">  1        1 0.13183423E+00 0.28341298E+03</pdfrwt>
<pdfrwt beam="2">  1       -1 0.16288455E-01 0.28341298E+03</pdfrwt>
<totfact> 0.58416596E+02</totfact>
</mgrwt>
</event>
<event>
 8    1  0.1893090E-003  0.9993736E+02  0.7546771E-02  0.1283296E+00
          2   -1    0    0  501    0  0.00000000000E+00  0.00000000000E+00  0.69776295388E+03  0.69776295388E+03  0.00000000000E+00 0. -1.
         -2   -1    0    0    0  501 -0.00000000000E+00 -0.00000000000E+00 -0.16763265827E+02  0.16763265827E+02  0.00000000000E+00 0.  1.
         23    2    1    2    0    0  0.12634293445E+02  0.24745429893E+02  0.19200418256E+03  0.21645572918E+03  0.95997473406E+02 0.  0.
         23    2    1    2    0    0 -0.12634293445E+02 -0.24745429893E+02  0.48899550548E+03  0.49807049052E+03  0.90474568118E+02 0.  0.
          5    1    4    4  502    0 -0.88185963215E+01 -0.55051594995E+02  0.39927981617E+03  0.40318098585E+03  0.47000000000E+01 0. -1.
         -5    1    4    4    0  502 -0.38156971231E+01  0.30306165102E+02  0.89715689315E+02  0.94889504672E+02  0.47000000000E+01 0.  1.
          5    1    3    3  503    0 -0.23871102575E+02 -0.19069305464E+02  0.12293419282E+03  0.12676108911E+03  0.47000000000E+01 0. -1.
         -5    1    3    3    0  503  0.36505396020E+02  0.43814735357E+02  0.69069989744E+02  0.89694640064E+02  0.47000000000E+01 0.  1.
<mgrwt>
<rscale>  0 0.98587063E+02</rscale>
<asrwt>0</asrwt>
<pdfrwt beam="1">  1        2 0.10734812E+00 0.99937363E+02</pdfrwt>
<pdfrwt beam="2">  1       -2 0.25789645E-02 0.99937363E+02</pdfrwt>
<totfact> 0.20568177E+04</totfact>
</mgrwt>
</event>
<event>
 8    1  0.1893090E-003  0.1203892E+03  0.7546771E-02  0.1242556E+00
         -1   -1    0    0    0  501 -0.00000000000E+00  0.00000000000E+00  0.33523365702E+03  0.33523365702E+03  0.00000000000E+00 0.  1.
          1   -1    0    0  501    0  0.00000000000E+00 -0.00000000000E+00 -0.64587594824E+02  0.64587594824E+02  0.00000000000E+00 0. -1.
         23    2    1    2    0    0  0.45736876698E+02 -0.62916513207E+02  0.25041269720E+03  0.27774366707E+03  0.91567877326E+02 0.  0.
         23    2    1    2    0    0 -0.45736876698E+02  0.62916513207E+02  0.20233365004E+02  0.12207758477E+03  0.91886876761E+02 0.  0.
          5    1    3    3  502    0 -0.13022350064E+02 -0.41131592052E+02  0.43295638757E+02  0.61302461625E+02  0.47000000000E+01 0. -1.
         -5    1    4    4    0  503 -0.26176517619E+02  0.58744516423E+01  0.48259395360E+02  0.55414605450E+02  0.47000000000E+01 0.  1.
          5    1    4    4  503    0 -0.19560359079E+02  0.57042061565E+02 -0.28026030356E+02  0.66662979324E+02  0.47000000000E+01 0. -1.
         -5    1    3    3    0  502  0.58759226762E+02 -0.21784921156E+02  0.20711705844E+03  0.21644120545E+03  0.47000000000E+01 0.  1.
<mgrwt>
<rscale>  0 0.12032828E+03</rscale>
<asrwt>0</asrwt>
<pdfrwt beam="1">  1        1 0.99365532E-02 0.12038915E+03</pdfrwt>
<pdfrwt beam="2">  1       -1 0.51574408E-01 0.12038915E+03</pdfrwt>
<totfact> 0.24157077E+03</totfact>
</mgrwt>
</event>
<event>
 8    1  0.1893090E-003  0.1029697E+03  0.7546771E-02  0.1274580E+00
         -1   -1    0    0    0  501 -0.00000000000E+00  0.00000000000E+00  0.78626114281E+02  0.78626114281E+02  0.00000000000E+00 0.  1.
          1   -1    0    0  501    0  0.00000000000E+00 -0.00000000000E+00 -0.16344923052E+03  0.16344923052E+03  0.00000000000E+00 0. -1.
         23    2    1    2    0    0  0.23376489280E+02  0.44100317011E+02  0.92741320718E+01  0.10258680906E+03  0.89144521181E+02 0.  0.
         23    2    1    2    0    0 -0.23376489280E+02 -0.44100317011E+02 -0.94097248316E+02  0.13948853574E+03  0.90063651111E+02 0.  0.
          5    1    3    3  502    0  0.47279077804E+02  0.42304888207E+02 -0.17861418912E+02  0.66076736071E+02  0.47000000000E+01 0. -1.
         -5    1    3    3    0  502 -0.23902588524E+02  0.17954288043E+01  0.27135550984E+02  0.36510072993E+02  0.47000000000E+01 0.  1.
          5    1    4    4  503    0  0.24848487434E+02 -0.35798566935E+02 -0.14936010113E+02  0.46305065818E+02  0.47000000000E+01 0. -1.
         -5    1    4    4    0  503 -0.48224976714E+02 -0.83017500764E+01 -0.79161238203E+02  0.93183469924E+02  0.47000000000E+01 0.  1.
<mgrwt>
<rscale>  0 0.10276837E+03</rscale>
<asrwt>0</asrwt>
<pdfrwt beam="1">  1        1 0.25146036E-01 0.10296970E+03</pdfrwt>
<pdfrwt beam="2">  1       -1 0.12096325E-01 0.10296970E+03</pdfrwt>
<totfact> 0.79504582E+03</totfact>
</mgrwt>
</event>
<event>
 8    1  0.1893090E-003  0.1232481E+03  0.7546771E-02  0.1238953E+00
          1   -1    0    0  501    0  0.00000000000E+00  0.00000000000E+00  0.87268169319E+02  0.87268169319E+02  0.00000000000E+00 0. -1.
         -1   -1    0    0    0  501 -0.00000000000E+00 -0.00000000000E+00 -0.17428826144E+03  0.17428826144E+03  0.00000000000E+00 0.  1.
         23    2    1    2    0    0 -0.45108023504E+02 -0.67878057774E+02 -0.23864211097E+02  0.12553718743E+03  0.92454963873E+02 0.  0.
         23    2    1    2    0    0  0.45108023504E+02  0.67878057774E+02 -0.63155881019E+02  0.13601924333E+03  0.88715301588E+02 0.  0.
          5    1    3    3  502    0 -0.70992384784E+02 -0.31517113480E+02 -0.93878435770E+01  0.78380282894E+02  0.47000000000E+01 0. -1.
         -5    1    4    4    0  503  0.61300077177E+02  0.23379394604E+02 -0.13314361840E+02  0.67109297308E+02  0.47000000000E+01 0.  1.
          5    1    4    4  503    0 -0.16192053672E+02  0.44498663170E+02 -0.49841519179E+02  0.68909946017E+02  0.47000000000E+01 0. -1.
         -5    1    3    3    0  502  0.25884361280E+02 -0.36360944294E+02 -0.14476367520E+02  0.47156904536E+02  0.47000000000E+01 0.  1.
<mgrwt>
<rscale>  0 0.12254712E+03</rscale>
<asrwt>0</asrwt>
<pdfrwt beam="1">  1        1 0.13425873E-01 0.12324806E+03</pdfrwt>
<pdfrwt beam="2">  1       -1 0.26813578E-01 0.12324806E+03</pdfrwt>
<totfact> 0.50627346E+03</totfact>
</mgrwt>
</event>
<event>
 8    1  0.1893090E-003  0.1026672E+03  0.7546771E-02  0.1275783E+00
          1   -1    0    0  501    0  0.00000000000E+00  0.00000000000E+00  0.18725390392E+03  0.18725390392E+03  0.00000000000E+00 0. -1.
         -1   -1    0    0    0  501 -0.00000000000E+00 -0.00000000000E+00 -0.79176684164E+02  0.79176684164E+02  0.00000000000E+00 0.  1.
         23    2    1    2    0    0  0.76347575788E+01  0.44831962042E+02 -0.19583541760E+02  0.10260802886E+03  0.89870451956E+02 0.  0.
         23    2    1    2    0    0 -0.76347575788E+01 -0.44831962042E+02  0.12766076151E+03  0.16382255922E+03  0.92045459073E+02 0.  0.
          5    1    3    3  502    0 -0.39900561932E+01 -0.26564684532E+02  0.88229771238E+00  0.27285004342E+02  0.47000000000E+01 0. -1.
         -5    1    3    3    0  502  0.11624813772E+02  0.71396646573E+02 -0.20465839472E+02  0.75323024517E+02  0.47000000000E+01 0.  1.
          5    1    4    4  503    0 -0.30386925643E+02 -0.38648786167E+02  0.13057712200E+03  0.13960504544E+03  0.47000000000E+01 0. -1.
         -5    1    4    4    0  503  0.22752168064E+02 -0.61831758745E+01 -0.29163604832E+01  0.24217513786E+02  0.47000000000E+01 0.  1.
<mgrwt>
<rscale>  0 0.10217740E+03</rscale>
<asrwt>0</asrwt>
<pdfrwt beam="1">  1        1 0.28808293E-01 0.10266723E+03</pdfrwt>
<pdfrwt beam="2">  1       -1 0.12181028E-01 0.10266723E+03</pdfrwt>
<totfact> 0.66444162E+03</totfact>
</mgrwt>
</event>
<event>
 8    1  0.1893090E-003  0.1260498E+03  0.7546771E-02  0.1233495E+00
         -1   -1    0    0    0  501 -0.00000000000E+00  0.00000000000E+00  0.17320054063E+03  0.17320054063E+03  0.00000000000E+00 0.  1.
          1   -1    0    0  501    0  0.00000000000E+00 -0.00000000000E+00 -0.95069084321E+02  0.95069084321E+02  0.00000000000E+00 0. -1.
         23    2    1    2    0    0  0.54235551203E+02  0.68193213700E+02  0.13567503228E+02  0.12677788260E+03  0.91086469709E+02 0.  0.
         23    2    1    2    0    0 -0.54235551203E+02 -0.68193213700E+02  0.64563953080E+02  0.14149174235E+03  0.90882339903E+02 0.  0.
          5    1    4    4  502    0 -0.88323305495E+01 -0.33492098106E+02 -0.19278012578E+02  0.39918197196E+02  0.47000000000E+01 0. -1.
         -5    1    4    4    0  502 -0.45403220654E+02 -0.34701115594E+02  0.83841965658E+02  0.10157354515E+03  0.47000000000E+01 0.  1.
          5    1    3    3  503    0  0.78139215547E+02  0.43124235381E+02  0.25692585552E+00  0.89373333240E+02  0.47000000000E+01 0. -1.
         -5    1    3    3    0  503 -0.23903664344E+02  0.25068978319E+02  0.13310577372E+02  0.37404549362E+02  0.47000000000E+01 0.  1.
<mgrwt>
<rscale>  0 0.12601294E+03</rscale>
<asrwt>0</asrwt>
<pdfrwt beam="1">  1        1 0.14626013E-01 0.12604981E+03</pdfrwt>
<pdfrwt beam="2">  1       -1 0.26646237E-01 0.12604981E+03</pdfrwt>
<totfact> 0.45847187E+03</totfact>
</mgrwt>
</event>
<event>
 8    1  0.1893090E-003  0.1427746E+03  0.7546771E-02  0.1210250E+00
          2   -1    0    0  501    0  0.00000000000E+00  0.00000000000E+00  0.12192838122E+04  0.12192838122E+04  0.00000000000E+00 0. -1.
         -2   -1    0    0    0  501 -0.00000000000E+00 -0.00000000000E+00 -0.20692712483E+02  0.20692712483E+02  0.00000000000E+00 0.  1.
         23    2    1    2    0    0  0.52473962135E+02 -0.96595823523E+02  0.32345266925E+03  0.35356217814E+03  0.91106063119E+02 0.  0.
         23    2    1    2    0    0 -0.52473962135E+02  0.96595823523E+02  0.87513843045E+03  0.88641434653E+03  0.88197797397E+02 0.  0.
          5    1    4    4  502    0 -0.75502835092E+02  0.77472762723E+02  0.60842258788E+03  0.61798288206E+03  0.47000000000E+01 0. -1.
         -5    1    4    4    0  502  0.23028872957E+02  0.19123060800E+02  0.26671584256E+03  0.26843146447E+03  0.47000000000E+01 0.  1.
          5    1    3    3  503    0  0.35351246665E+02 -0.22286431788E+02  0.22523875138E+03  0.22913092503E+03  0.47000000000E+01 0. -1.
         -5    1    3    3    0  503  0.17122715470E+02 -0.74309391735E+02  0.98213917872E+02  0.12443125310E+03  0.47000000000E+01 0.  1.
<mgrwt>
<rscale>  0 0.14231286E+03</rscale>
<asrwt>0</asrwt>
<pdfrwt beam="1">  1        2 0.18758207E+00 0.14277459E+03</pdfrwt>
<pdfrwt beam="2">  1       -2 0.31834952E-02 0.14277459E+03</pdfrwt>
<totfact> 0.73715146E+03</totfact>
</mgrwt>
</event>
<event>
 8    1  0.1893090E-003  0.1002274E+03  0.7546771E-02  0.1283102E+00
          2   -1    0    0  501    0  0.00000000000E+00  0.00000000000E+00  0.10988116950E+02  0.10988116950E+02  0.00000000000E+00 0. -1.
         -2   -1    0    0    0  501 -0.00000000000E+00 -0.00000000000E+00 -0.86120273719E+03  0.86120273719E+03  0.00000000000E+00 0.  1.
         23    2    1    2    0    0 -0.25275245119E+02 -0.40166649990E+00 -0.42069759523E+03  0.43247197136E+03  0.96987318933E+02 0.  0.
         23    2    1    2    0    0  0.25275245119E+02  0.40166649990E+00 -0.42951702501E+03  0.43971888278E+03  0.90712853238E+02 0.  0.
          5    1    3    3  502    0  0.28002768221E+02 -0.15771218409E+02 -0.26779024178E+03  0.26975283122E+03  0.47000000000E+01 0. -1.
         -5    1    4    4    0  503  0.58021494165E+02  0.88167693490E+01 -0.23731547935E+03  0.24450962343E+03  0.47000000000E+01 0.  1.
          5    1    4    4  503    0 -0.32746249046E+02 -0.84151028491E+01 -0.19220154566E+03  0.19520925935E+03  0.47000000000E+01 0. -1.
         -5    1    3    3    0  502 -0.53278013340E+02  0.15369551909E+02 -0.15290735345E+03  0.16271914015E+03  0.47000000000E+01 0.  1.
<mgrwt>
<rscale>  0 0.98677261E+02</rscale>
<asrwt>0</asrwt>
<pdfrwt beam="1">  1        2 0.16904792E-02 0.10022744E+03</pdfrwt>
<pdfrwt beam="2">  1       -2 0.13249275E+00 0.10022744E+03</pdfrwt>
<totfact> 0.27885162E+03</totfact>
</mgrwt>
</event>
<event>
 8    1  0.1893090E-003  0.9749600E+02  0.7546771E-02  0.1289345E+00
         -3   -1    0    0    0  501 -0.00000000000E+00  0.00000000000E+00  0.12168718204E+03  0.12168718204E+03  0.00000000000E+00 0.  1.
          3   -1    0    0  501    0  0.00000000000E+00 -0.00000000000E+00 -0.11246915853E+03  0.11246915853E+03  0.00000000000E+00 0. -1.
         23    2    1    2    0    0  0.89022521053E+01 -0.97544284529E+01 -0.64651520303E+02  0.11698414043E+03  0.96597469255E+02 0.  0.
         23    2    1    2    0    0 -0.89022521053E+01  0.97544284529E+01  0.73869543809E+02  0.11717220014E+03  0.89990088437E+02 0.  0.
          5    1    3    3  502    0 -0.17726807754E+02  0.10210862926E+02 -0.78032229642E+02  0.80806065971E+02  0.47000000000E+01 0. -1.
         -5    1    4    4    0  503  0.66584562910E+01 -0.38850076323E+02  0.32992184606E+02  0.51616254374E+02  0.47000000000E+01 0.  1.
          5    1    4    4  503    0 -0.15560708396E+02  0.48604504776E+02  0.40877359202E+02  0.65555945769E+02  0.47000000000E+01 0. -1.
         -5    1    3    3    0  502  0.26629059860E+02 -0.19965291378E+02  0.13380709338E+02  0.36178074454E+02  0.47000000000E+01 0.  1.
<mgrwt>
<rscale>  0 0.95817636E+02</rscale>
<asrwt>0</asrwt>
<pdfrwt beam="1">  1        3 0.17302947E-01 0.97496000E+02</pdfrwt>
<pdfrwt beam="2">  1       -3 0.18721105E-01 0.97496000E+02</pdfrwt>
<totfact> 0.15804795E+03</totfact>
</mgrwt>
</event>
<event>
 8    1  0.1893090E-003  0.9317262E+02  0.7546771E-02  0.1297338E+00
         -2   -1    0    0    0  501 -0.00000000000E+00  0.00000000000E+00  0.85963313711E+02  0.85963313711E+02  0.00000000000E+00 0.  1.
          2   -1    0    0  501    0  0.00000000000E+00 -0.00000000000E+00 -0.16974545383E+03  0.16974545383E+03  0.00000000000E+00 0. -1.
         23    2    1    2    0    0 -0.18095565080E+02  0.87920753087E+01 -0.12581967242E+03  0.15656221617E+03  0.90974653056E+02 0.  0.
         23    2    1    2    0    0  0.18095565080E+02 -0.87920753087E+01  0.42037532308E+02  0.99146551370E+02  0.87510767693E+02 0.  0.
          5    1    4    4  502    0  0.47704510359E+02 -0.15941981689E+02  0.47048764504E+01  0.50735519620E+02  0.47000000000E+01 0. -1.
         -5    1    4    4    0  502 -0.29608945278E+02  0.71499063799E+01  0.37332655857E+02  0.48411031750E+02  0.47000000000E+01 0.  1.
          5    1    3    3  503    0  0.24983602059E+02  0.43533346671E+01 -0.10529452538E+03  0.10840737507E+03  0.47000000000E+01 0. -1.
         -5    1    3    3    0  503 -0.43079167140E+02  0.44387406416E+01 -0.20525147043E+02  0.48154841097E+02  0.47000000000E+01 0.  1.
<mgrwt>
<rscale>  0 0.92316120E+02</rscale>
<asrwt>0</asrwt>
<pdfrwt beam="1">  1        2 0.26114685E-01 0.93172622E+02</pdfrwt>
<pdfrwt beam="2">  1       -2 0.13225125E-01 0.93172622E+02</pdfrwt>
<totfact> 0.79292199E+03</totfact>
</mgrwt>
</event>
<event>
 8    1  0.1893090E-003  0.9329384E+02  0.7546771E-02  0.1295953E+00
         -2   -1    0    0    0  501 -0.00000000000E+00  0.00000000000E+00  0.11411961169E+02  0.11411961169E+02  0.00000000000E+00 0.  1.
          2   -1    0    0  501    0  0.00000000000E+00 -0.00000000000E+00 -0.80868826896E+03  0.80868826896E+03  0.00000000000E+00 0. -1.
         23    2    1    2    0    0 -0.25349259915E+01 -0.10482662524E+02 -0.29148490760E+03  0.30605096436E+03  0.92668383853E+02 0.  0.
         23    2    1    2    0    0  0.25349259915E+01  0.10482662524E+02 -0.50579140019E+03  0.51404926577E+03  0.91133940243E+02 0.  0.
          5    1    4    4  502    0  0.21057761789E+02 -0.26983635338E+02 -0.94580941545E+02  0.10069354702E+03  0.47000000000E+01 0. -1.
         -5    1    3    3    0  503  0.29867281953E+02  0.25219347838E+02 -0.18383369166E+03  0.18800262292E+03  0.47000000000E+01 0.  1.
          5    1    3    3  503    0 -0.32402207944E+02 -0.35702010362E+02 -0.10765121594E+03  0.11804834144E+03  0.47000000000E+01 0. -1.
         -5    1    4    4    0  502 -0.18522835798E+02  0.37466297863E+02 -0.41121045864E+03  0.41335571875E+03  0.47000000000E+01 0.  1.
<mgrwt>
<rscale>  0 0.92910492E+02</rscale>
<asrwt>0</asrwt>
<pdfrwt beam="1">  1        2 0.12441359E+00 0.93293845E+02</pdfrwt>
<pdfrwt beam="2">  1       -2 0.17556862E-02 0.93293845E+02</pdfrwt>
<totfact> 0.29805082E+04</totfact>
</mgrwt>
</event>
<event>
 8    1  0.4204735E-003  0.1021202E+03  0.7546771E-02  0.1277038E+00
         -2   -1    0    0    0  501 -0.00000000000E+00  0.00000000000E+00  0.11592789937E+03  0.11592789937E+03  0.00000000000E+00 0.  1.
          2   -1    0    0  501    0  0.00000000000E+00 -0.00000000000E+00 -0.85495041746E+03  0.85495041746E+03  0.00000000000E+00 0. -1.
         23    2    1    2    0    0  0.40144171925E+02  0.66087502742E+01 -0.82969239655E+03  0.83595335617E+03  0.93665952542E+02 0.  0.
         23    2    1    2    0    0 -0.40144171925E+02 -0.66087502742E+01  0.90669878466E+02  0.13492496067E+03  0.91260550240E+02 0.  0.
          5    1    3    3  502    0  0.70187242273E+02 -0.10363533768E+01 -0.53790253693E+03  0.54248368845E+03  0.47000000000E+01 0. -1.
         -5    1    3    3    0  502 -0.30043070348E+02  0.76451036509E+01 -0.29178985963E+03  0.29346966771E+03  0.47000000000E+01 0.  1.
          5    1    4    4  503    0  0.33765034048E+00 -0.43108568699E+02  0.53100307609E+02  0.68557970880E+02  0.47000000000E+01 0. -1.
         -5    1    4    4    0  503 -0.40481822266E+02  0.36499818424E+02  0.37569570857E+02  0.66366989787E+02  0.47000000000E+01 0.  1.
<mgrwt>
<rscale>  0 0.10156530E+03</rscale>
<asrwt>0</asrwt>
<pdfrwt beam="1">  1        2 0.13153083E+00 0.10212023E+03</pdfrwt>
<pdfrwt beam="2">  1       -2 0.17835062E-01 0.10212023E+03</pdfrwt>
<totfact> 0.83807520E+02</totfact>
</mgrwt>
</event>
<event>
 8    1  0.1893090E-003  0.3330376E+03  0.7546771E-02  0.1069818E+00
          1   -1    0    0  501    0  0.00000000000E+00  0.00000000000E+00  0.32323092451E+03  0.32323092451E+03  0.00000000000E+00 0. -1.
         -1   -1    0    0    0  501 -0.00000000000E+00 -0.00000000000E+00 -0.78243705706E+03  0.78243705706E+03  0.00000000000E+00 0.  1.
         23    2    1    2    0    0 -0.19322414422E+03  0.25555609085E+03  0.18468603170E+03  0.38081878436E+03  0.90936960244E+02 0.  0.
         23    2    1    2    0    0  0.19322414422E+03 -0.25555609085E+03 -0.64389216425E+03  0.72484919721E+03  0.90359028503E+02 0.  0.
          5    1    4    4  502    0  0.26733700660E+02 -0.12394428320E+02 -0.12086685080E+03  0.12449577594E+03  0.47000000000E+01 0. -1.
         -5    1    3    3    0  503  0.61491991110E+00  0.30737850512E+02  0.39681095334E+02  0.50416990266E+02  0.47000000000E+01 0.  1.
          5    1    3    3  503    0 -0.19383906413E+03  0.22481824034E+03  0.14500493637E+03  0.33040179409E+03  0.47000000000E+01 0. -1.
         -5    1    4    4    0  502  0.16649044356E+03 -0.24316166253E+03 -0.52302531345E+03  0.60035342127E+03  0.47000000000E+01 0.  1.
<mgrwt>
<rscale>  0 0.33299822E+03</rscale>
<asrwt>0</asrwt>
<pdfrwt beam="1">  1        1 0.49727835E-01 0.33303756E+03</pdfrwt>
<pdfrwt beam="2">  1       -1 0.12037493E+00 0.33303756E+03</pdfrwt>
<totfact> 0.52278321E+01</totfact>
</mgrwt>
</event>
<event>
 8    1  0.1893090E-003  0.1094616E+03  0.7546771E-02  0.1262327E+00
         -2   -1    0    0    0  501 -0.00000000000E+00  0.00000000000E+00  0.20536927717E+02  0.20536927717E+02  0.00000000000E+00 0.  1.
          2   -1    0    0  501    0  0.00000000000E+00 -0.00000000000E+00 -0.58095150805E+03  0.58095150805E+03  0.00000000000E+00 0. -1.
         23    2    1    2    0    0  0.30186515070E+02 -0.53202472152E+02 -0.25151289584E+03  0.27430015875E+03  0.90775060355E+02 0.  0.
         23    2    1    2    0    0 -0.30186515070E+02  0.53202472152E+02 -0.30890168450E+03  0.32718827702E+03  0.88826736955E+02 0.  0.
          5    1    4    4  502    0 -0.59197494810E+02  0.49394589398E+02 -0.24170361530E+03  0.25374573199E+03  0.47000000000E+01 0. -1.
         -5    1    3    3    0  503  0.61597427210E+02 -0.32746320640E+02 -0.13864116313E+03  0.15527403733E+03  0.47000000000E+01 0.  1.
          5    1    3    3  503    0 -0.31410912140E+02 -0.20456151512E+02 -0.11287173271E+03  0.11902612142E+03  0.47000000000E+01 0. -1.
         -5    1    4    4    0  502  0.29010979741E+02  0.38078827544E+01 -0.67198069200E+02  0.73442545032E+02  0.47000000000E+01 0.  1.
<mgrwt>
<rscale>  0 0.10905680E+03</rscale>
<asrwt>0</asrwt>
<pdfrwt beam="1">  1        2 0.89377144E-01 0.10946159E+03</pdfrwt>
<pdfrwt beam="2">  1       -2 0.31595277E-02 0.10946159E+03</pdfrwt>
<totfact> 0.19022882E+04</totfact>
</mgrwt>
</event>
<event>
 8    1  0.1893090E-003  0.1516038E+03  0.7546771E-02  0.1198895E+00
          2   -1    0    0  501    0  0.00000000000E+00  0.00000000000E+00  0.10148665197E+04  0.10148665197E+04  0.00000000000E+00 0. -1.
         -2   -1    0    0    0  501 -0.00000000000E+00 -0.00000000000E+00 -0.24741356189E+02  0.24741356189E+02  0.00000000000E+00 0.  1.
         23    2    1    2    0    0 -0.79741028438E+02  0.88329201201E+02  0.65100870059E+03  0.66814632969E+03  0.91904897814E+02 0.  0.
         23    2    1    2    0    0  0.79741028438E+02 -0.88329201201E+02  0.33911646296E+03  0.37146154623E+03  0.93930961227E+02 0.  0.
          5    1    4    4  502    0  0.39919075956E+02 -0.16502240783E+02  0.23391481515E+03  0.23791613506E+03  0.47000000000E+01 0. -1.
         -5    1    4    4    0  502  0.39821952481E+02 -0.71826960419E+02  0.10520164781E+03  0.13354541117E+03  0.47000000000E+01 0.  1.
          5    1    3    3  503    0 -0.76255609046E+02  0.45781439873E+02  0.26097484398E+03  0.27575499513E+03  0.47000000000E+01 0. -1.
         -5    1    3    3    0  503 -0.34854193913E+01  0.42547761328E+02  0.39003385660E+03  0.39239133456E+03  0.47000000000E+01 0.  1.
<mgrwt>
<rscale>  0 0.15129108E+03</rscale>
<asrwt>0</asrwt>
<pdfrwt beam="1">  1        2 0.15613328E+00 0.15160378E+03</pdfrwt>
<pdfrwt beam="2">  1       -2 0.38063633E-02 0.15160378E+03</pdfrwt>
<totfact> 0.74239560E+03</totfact>
</mgrwt>
</event>
<event>
 8    1  0.1893090E-003  0.9241306E+02  0.7546771E-02  0.1298156E+00
         -2   -1    0    0    0  501 -0.00000000000E+00  0.00000000000E+00  0.48707112373E+02  0.48707112373E+02  0.00000000000E+00 0.  1.
          2   -1    0    0  501    0  0.00000000000E+00 -0.00000000000E+00 -0.47819268581E+03  0.47819268581E+03  0.00000000000E+00 0. -1.
         23    2    1    2    0    0 -0.90543782145E+01 -0.11597799184E+02 -0.42629800631E+03  0.43619968245E+03  0.91234215490E+02 0.  0.
         23    2    1    2    0    0  0.90543782145E+01  0.11597799184E+02 -0.31875671308E+01  0.90700115736E+02  0.89441934793E+02 0.  0.
          5    1    4    4  502    0  0.12599237180E+02 -0.37875429703E+02  0.38819121343E+01  0.40378808731E+02  0.47000000000E+01 0. -1.
         -5    1    3    3    0  503  0.40985396373E+02 -0.50822935596E+01 -0.17913775286E+03  0.18389686491E+03  0.47000000000E+01 0.  1.
          5    1    3    3  503    0 -0.50039774588E+02 -0.65155056246E+01 -0.24716025345E+03  0.25230281754E+03  0.47000000000E+01 0. -1.
         -5    1    4    4    0  502 -0.35448589657E+01  0.49473228887E+02 -0.70694792651E+01  0.50321307005E+02  0.47000000000E+01 0.  1.
<mgrwt>
<rscale>  0 0.91967603E+02</rscale>
<asrwt>0</asrwt>
<pdfrwt beam="1">  1        2 0.73568104E-01 0.92413055E+02</pdfrwt>
<pdfrwt beam="2">  1       -2 0.74934020E-02 0.92413055E+02</pdfrwt>
<totfact> 0.64182490E+03</totfact>
</mgrwt>
</event>
<event>
 8    1  0.1893090E-003  0.2273864E+03  0.7546771E-02  0.1128623E+00
          1   -1    0    0  501    0  0.00000000000E+00  0.00000000000E+00  0.41150946718E+02  0.41150946718E+02  0.00000000000E+00 0. -1.
         -1   -1    0    0    0  501 -0.00000000000E+00 -0.00000000000E+00 -0.12791753599E+04  0.12791753599E+04  0.00000000000E+00 0.  1.
         23    2    1    2    0    0  0.12925355826E+03  0.16357387376E+03 -0.52258854826E+03  0.56962460222E+03  0.88941003958E+02 0.  0.
         23    2    1    2    0    0 -0.12925355826E+03 -0.16357387376E+03 -0.71543586489E+03  0.75070170436E+03  0.90783686135E+02 0.  0.
          5    1    3    3  502    0  0.12230451121E+03  0.12098659501E+03 -0.47498991086E+03  0.50520654692E+03  0.47000000000E+01 0. -1.
         -5    1    3    3    0  502  0.69490470490E+01  0.42587278749E+02 -0.47598637396E+02  0.64418055295E+02  0.47000000000E+01 0.  1.
          5    1    4    4  503    0 -0.84476804632E+02 -0.36944353833E+02 -0.26344086843E+03  0.27914941691E+03  0.47000000000E+01 0. -1.
         -5    1    4    4    0  503 -0.44776753624E+02 -0.12662951992E+03 -0.45199499646E+03  0.47155228746E+03  0.47000000000E+01 0.  1.
<mgrwt>
<rscale>  0 0.22720383E+03</rscale>
<asrwt>0</asrwt>
<pdfrwt beam="1">  1        1 0.63309143E-02 0.22738639E+03</pdfrwt>
<pdfrwt beam="2">  1       -1 0.19679623E+00 0.22738639E+03</pdfrwt>
<totfact> 0.21120267E+02</totfact>
</mgrwt>
</event>
<event>
 8    1  0.1893090E-003  0.9686985E+02  0.7546771E-02  0.1291100E+00
         -1   -1    0    0    0  501 -0.00000000000E+00  0.00000000000E+00  0.47188270030E+02  0.47188270030E+02  0.00000000000E+00 0.  1.
          1   -1    0    0  501    0  0.00000000000E+00 -0.00000000000E+00 -0.22843217754E+03  0.22843217754E+03  0.00000000000E+00 0. -1.
         23    2    1    2    0    0  0.23177357271E+02  0.25350918936E+02 -0.33004413400E+02  0.10233796510E+03  0.90575431631E+02 0.  0.
         23    2    1    2    0    0 -0.23177357271E+02 -0.25350918936E+02 -0.14823949411E+03  0.17328248247E+03  0.82897600311E+02 0.  0.
          5    1    3    3  502    0  0.18270286102E+02 -0.32333358933E+02 -0.47094978890E+01  0.37729548427E+02  0.47000000000E+01 0. -1.
         -5    1    4    4    0  503  0.20997305832E+02 -0.49451210891E+01 -0.60031041203E+01  0.22879430366E+02  0.47000000000E+01 0.  1.
          5    1    4    4  503    0 -0.44174663103E+02 -0.20405797847E+02 -0.14223638999E+03  0.15040305211E+03  0.47000000000E+01 0. -1.
         -5    1    3    3    0  502  0.49070711688E+01  0.57684277869E+02 -0.28294915511E+02  0.64608416669E+02  0.47000000000E+01 0.  1.
<mgrwt>
<rscale>  0 0.95033904E+02</rscale>
<asrwt>0</asrwt>
<pdfrwt beam="1">  1        1 0.35143411E-01 0.96869850E+02</pdfrwt>
<pdfrwt beam="2">  1       -1 0.72597340E-02 0.96869850E+02</pdfrwt>
<totfact> 0.11309654E+04</totfact>
</mgrwt>
</event>
<event>
 8    1  0.1893090E-003  0.9268628E+02  0.7546771E-02  0.1296851E+00
          1   -1    0    0  501    0  0.00000000000E+00  0.00000000000E+00  0.77044662879E+03  0.77044662879E+03  0.00000000000E+00 0. -1.
         -1   -1    0    0    0  501 -0.00000000000E+00 -0.00000000000E+00 -0.13720875138E+02  0.13720875138E+02  0.00000000000E+00 0.  1.
         23    2    1    2    0    0 -0.10533478535E+01 -0.12680466547E+02  0.20505204685E+03  0.22476190394E+03  0.91157379131E+02 0.  0.
         23    2    1    2    0    0  0.10533478535E+01  0.12680466547E+02  0.55167370680E+03  0.55940559999E+03  0.91808729170E+02 0.  0.
          5    1    4    4  502    0 -0.87402029591E+01 -0.38558198400E+02  0.26722222613E+03  0.27017204509E+03  0.47000000000E+01 0. -1.
         -5    1    4    4    0  502  0.97935508126E+01  0.51238664947E+02  0.28445148067E+03  0.28923355490E+03  0.47000000000E+01 0.  1.
          5    1    3    3  503    0 -0.35774761429E+02 -0.34436687616E+02  0.96268233264E+02  0.10842223824E+03  0.47000000000E+01 0. -1.
         -5    1    3    3    0  503  0.34721413576E+02  0.21756221069E+02  0.10878381359E+03  0.11633966570E+03  0.47000000000E+01 0.  1.
<mgrwt>
<rscale>  0 0.92524573E+02</rscale>
<asrwt>0</asrwt>
<pdfrwt beam="1">  1        1 0.11853022E+00 0.92686280E+02</pdfrwt>
<pdfrwt beam="2">  1       -1 0.21109045E-02 0.92686280E+02</pdfrwt>
<totfact> 0.14310784E+04</totfact>
</mgrwt>
</event>
<event>
 8    1  0.4653333E-003  0.9768265E+02  0.7546771E-02  0.1289200E+00
          3   -1    0    0  501    0  0.00000000000E+00  0.00000000000E+00  0.26311300605E+03  0.26311300605E+03  0.00000000000E+00 0. -1.
         -3   -1    0    0    0  501 -0.00000000000E+00 -0.00000000000E+00 -0.26385573746E+03  0.26385573746E+03  0.00000000000E+00 0.  1.
         23    2    1    2    0    0 -0.26672924298E+01  0.95702290272E+01  0.24568556944E+03  0.26188610118E+03  0.90134495199E+02 0.  0.
         23    2    1    2    0    0  0.26672924298E+01 -0.95702290272E+01 -0.24642830085E+03  0.26508264233E+03  0.97176108551E+02 0.  0.
          5    1    3    3  502    0  0.18115893451E+02  0.23899732735E+02  0.22957339280E+03  0.23157162068E+03  0.47000000000E+01 0. -1.
         -5    1    3    3    0  502 -0.20783185881E+02 -0.14329503708E+02  0.16112176641E+02  0.30314480500E+02  0.47000000000E+01 0.  1.
          5    1    4    4  503    0  0.79767352028E+01  0.42590611718E+02 -0.13466883130E+03  0.14154636214E+03  0.47000000000E+01 0. -1.
         -5    1    4    4    0  503 -0.53094427729E+01 -0.52160840745E+02 -0.11175946955E+03  0.12353628019E+03  0.47000000000E+01 0.  1.
<mgrwt>
<rscale>  0 0.95882953E+02</rscale>
<asrwt>0</asrwt>
<pdfrwt beam="1">  1        3 0.40478924E-01 0.97682648E+02</pdfrwt>
<pdfrwt beam="2">  1       -3 0.40593190E-01 0.97682648E+02</pdfrwt>
<totfact> 0.83126006E+01</totfact>
</mgrwt>
</event>
<event>
 8    1  0.1893090E-003  0.9581731E+02  0.7546771E-02  0.1290423E+00
          2   -1    0    0  501    0  0.00000000000E+00  0.00000000000E+00  0.13901866028E+03  0.13901866028E+03  0.00000000000E+00 0. -1.
         -2   -1    0    0    0  501 -0.00000000000E+00 -0.00000000000E+00 -0.17883819621E+03  0.17883819621E+03  0.00000000000E+00 0.  1.
         23    2    1    2    0    0 -0.22791111041E+01  0.26791140137E+02 -0.14693030200E+03  0.17541228718E+03  0.91967370911E+02 0.  0.
         23    2    1    2    0    0  0.22791111041E+01 -0.26791140137E+02  0.10711076607E+03  0.14244456931E+03  0.89970992988E+02 0.  0.
          5    1    4    4  502    0 -0.11946144561E+02  0.30126503266E+02  0.54074828457E+02  0.63217826929E+02  0.47000000000E+01 0. -1.
         -5    1    3    3    0  503 -0.14226450547E+02  0.45787794942E+02 -0.31119242983E+02  0.57353390001E+02  0.47000000000E+01 0.  1.
          5    1    3    3  503    0  0.11947339443E+02 -0.18996654805E+02 -0.11581105901E+03  0.11805889718E+03  0.47000000000E+01 0. -1.
         -5    1    4    4    0  502  0.14225255665E+02 -0.56917643402E+02  0.53035937616E+02  0.79226742379E+02  0.47000000000E+01 0.  1.
<mgrwt>
<rscale>  0 0.95335058E+02</rscale>
<asrwt>0</asrwt>
<pdfrwt beam="1">  1        2 0.21387486E-01 0.95817310E+02</pdfrwt>
<pdfrwt beam="2">  1       -2 0.27513569E-01 0.95817310E+02</pdfrwt>
<totfact> 0.29090449E+03</totfact>
</mgrwt>
</event>
<event>
 8    1  0.1893090E-003  0.1054451E+03  0.7546771E-02  0.1269253E+00
          1   -1    0    0  501    0  0.00000000000E+00  0.00000000000E+00  0.13788882667E+03  0.13788882667E+03  0.00000000000E+00 0. -1.
         -1   -1    0    0    0  501 -0.00000000000E+00 -0.00000000000E+00 -0.22639763994E+03  0.22639763994E+03  0.00000000000E+00 0.  1.
         23    2    1    2    0    0 -0.47372741823E+02 -0.10559378381E+02 -0.19041240655E+03  0.21765927564E+03  0.93610889133E+02 0.  0.
         23    2    1    2    0    0  0.47372741823E+02  0.10559378381E+02  0.10190359329E+03  0.14662719096E+03  0.93592273537E+02 0.  0.
          5    1    4    4  502    0  0.23990155248E+02  0.29365843155E+02  0.10894282672E+03  0.11544916538E+03  0.47000000000E+01 0. -1.
         -5    1    4    4    0  502  0.23382586575E+02 -0.18806464774E+02 -0.70392334310E+01  0.31178025587E+02  0.47000000000E+01 0.  1.
          5    1    3    3  503    0  0.10765520929E+02  0.27316859448E+02 -0.27414192603E+02  0.40444223408E+02  0.47000000000E+01 0. -1.
         -5    1    3    3    0  503 -0.58138262751E+02 -0.37876237829E+02 -0.16299821395E+03  0.17721505223E+03  0.47000000000E+01 0.  1.
<mgrwt>
<rscale>  0 0.10544100E+03</rscale>
<asrwt>0</asrwt>
<pdfrwt beam="1">  1        1 0.21213666E-01 0.10544513E+03</pdfrwt>
<pdfrwt beam="2">  1       -1 0.34830406E-01 0.10544513E+03</pdfrwt>
<totfact> 0.18042070E+03</totfact>
</mgrwt>
</event>
<event>
 8    1  0.1893090E-003  0.1116310E+03  0.7546771E-02  0.1266570E+00
         -2   -1    0    0    0  501 -0.00000000000E+00  0.00000000000E+00  0.15570260172E+03  0.15570260172E+03  0.00000000000E+00 0.  1.
          2   -1    0    0  501    0  0.00000000000E+00 -0.00000000000E+00 -0.67660240045E+02  0.67660240045E+02  0.00000000000E+00 0. -1.
         23    2    1    2    0    0  0.46984783884E+01 -0.16941340269E+02  0.42444765976E+02  0.10277831591E+03  0.91938780465E+02 0.  0.
         23    2    1    2    0    0 -0.46984783884E+01  0.16941340269E+02  0.45597595696E+02  0.12058452585E+03  0.11023793554E+03 0.  0.
          5    1    4    4  502    0 -0.51809643666E+02  0.30343051938E+02  0.13149741301E+02  0.61643699386E+02  0.47000000000E+01 0. -1.
         -5    1    4    4    0  502  0.47111165278E+02 -0.13401711668E+02  0.32447854395E+02  0.58940826464E+02  0.47000000000E+01 0.  1.
          5    1    3    3  503    0  0.35806007997E+02 -0.50598476954E+01  0.55746249544E+02  0.66613861964E+02  0.47000000000E+01 0. -1.
         -5    1    3    3    0  503 -0.31107529609E+02 -0.11881492574E+02 -0.13301483569E+02  0.36164453947E+02  0.47000000000E+01 0.  1.
<mgrwt>
<rscale>  0 0.10682257E+03</rscale>
<asrwt>0</asrwt>
<pdfrwt beam="1">  1        2 0.10409268E-01 0.11163103E+03</pdfrwt>
<pdfrwt beam="2">  1       -2 0.23954246E-01 0.11163103E+03</pdfrwt>
<totfact> 0.86476599E+03</totfact>
</mgrwt>
</event>
<event>
 8    1  0.1893090E-003  0.1141751E+03  0.7546771E-02  0.1255272E+00
          4   -1    0    0  501    0  0.00000000000E+00  0.00000000000E+00  0.32124486927E+02  0.32124486927E+02  0.00000000000E+00 0. -1.
         -4   -1    0    0    0  501 -0.00000000000E+00 -0.00000000000E+00 -0.53789701207E+03  0.53789701207E+03  0.00000000000E+00 0.  1.
         23    2    1    2    0    0 -0.67318085736E+02 -0.17771937805E+02 -0.40722022875E+03  0.42292346906E+03  0.90489665374E+02 0.  0.
         23    2    1    2    0    0  0.67318085736E+02  0.17771937805E+02 -0.98552296400E+02  0.14709802994E+03  0.84129120087E+02 0.  0.
          5    1    4    4  502    0  0.68381420729E+02  0.44677301814E+02 -0.75807507338E+02  0.11153899841E+03  0.47000000000E+01 0. -1.
         -5    1    4    4    0  502 -0.10633349936E+01 -0.26905364009E+02 -0.22744789062E+02  0.35559031529E+02  0.47000000000E+01 0.  1.
          5    1    3    3  503    0 -0.65772477276E+00 -0.29649384099E+02 -0.43080914944E+02  0.52512606217E+02  0.47000000000E+01 0. -1.
         -5    1    3    3    0  503 -0.66660360963E+02  0.11877446293E+02 -0.36413931380E+03  0.37041086284E+03  0.47000000000E+01 0.  1.
<mgrwt>
<rscale>  0 0.11291120E+03</rscale>
<asrwt>0</asrwt>
<pdfrwt beam="1">  1        4 0.49422293E-02 0.11417507E+03</pdfrwt>
<pdfrwt beam="2">  1       -4 0.82753377E-01 0.11417507E+03</pdfrwt>
<totfact> 0.51419319E+02</totfact>
</mgrwt>
</event>
<event>
 8    1  0.1893090E-003  0.1160067E+03  0.7546771E-02  0.1249915E+00
         -1   -1    0    0    0  501 -0.00000000000E+00  0.00000000000E+00  0.24887588217E+02  0.24887588217E+02  0.00000000000E+00 0.  1.
          1   -1    0    0  501    0  0.00000000000E+00 -0.00000000000E+00 -0.78368943709E+03  0.78368943709E+03  0.00000000000E+00 0. -1.
         23    2    1    2    0    0 -0.51488505615E+02  0.49355559525E+02 -0.60512364230E+03  0.61614298005E+03  0.91490501887E+02 0.  0.
         23    2    1    2    0    0  0.51488505615E+02 -0.49355559525E+02 -0.15367820658E+03  0.19243404526E+03  0.91251482892E+02 0.  0.
          5    1    4    4  502    0 -0.14147726948E+02  0.15834499777E+02 -0.42370687917E+02  0.47626198206E+02  0.47000000000E+01 0. -1.
         -5    1    4    4    0  502  0.65636232563E+02 -0.65190059302E+02 -0.11130751867E+03  0.14480784705E+03  0.47000000000E+01 0.  1.
          5    1    3    3  503    0 -0.70951608629E+02  0.19700911996E+02 -0.30055213456E+03  0.30947686875E+03  0.47000000000E+01 0. -1.
         -5    1    3    3    0  503  0.19463103013E+02  0.29654647528E+02 -0.30457150773E+03  0.30666611130E+03  0.47000000000E+01 0.  1.
<mgrwt>
<rscale>  0 0.11595955E+03</rscale>
<asrwt>0</asrwt>
<pdfrwt beam="1">  1        1 0.12056758E+00 0.11600668E+03</pdfrwt>
<pdfrwt beam="2">  1       -1 0.38288604E-02 0.11600668E+03</pdfrwt>
<totfact> 0.59975997E+03</totfact>
</mgrwt>
</event>
<event>
 8    1  0.1893090E-003  0.1207949E+03  0.7546771E-02  0.1241926E+00
          2   -1    0    0  501    0  0.00000000000E+00  0.00000000000E+00  0.33900992100E+03  0.33900992100E+03  0.00000000000E+00 0. -1.
         -2   -1    0    0    0  501 -0.00000000000E+00 -0.00000000000E+00 -0.43702390716E+02  0.43702390716E+02  0.00000000000E+00 0.  1.
         23    2    1    2    0    0  0.72571319497E+02  0.22181424862E+02  0.17298910620E+03  0.21080184812E+03  0.93560548760E+02 0.  0.
         23    2    1    2    0    0 -0.72571319497E+02 -0.22181424862E+02  0.12231842408E+03  0.17191046359E+03  0.93982969739E+02 0.  0.
          5    1    4    4  502    0 -0.49057871890E+02 -0.23301984140E+02  0.13440143757E+03  0.14503618059E+03  0.47000000000E+01 0. -1.
         -5    1    4    4    0  502 -0.23513447607E+02  0.11205592778E+01 -0.12083013497E+02  0.26874282997E+02  0.47000000000E+01 0.  1.
          5    1    3    3  503    0  0.69189894532E+02  0.43599815902E+02  0.16961429860E+03  0.18835945886E+03  0.47000000000E+01 0. -1.
         -5    1    3    3    0  503  0.33814249654E+01 -0.21418391040E+02  0.33748076042E+01  0.22442389264E+02  0.47000000000E+01 0.  1.
<mgrwt>
<rscale>  0 0.12071274E+03</rscale>
<asrwt>0</asrwt>
<pdfrwt beam="1">  1        2 0.52155371E-01 0.12079491E+03</pdfrwt>
<pdfrwt beam="2">  1       -2 0.67234450E-02 0.12079491E+03</pdfrwt>
<totfact> 0.11124430E+04</totfact>
</mgrwt>
</event>
<event>
 8    1  0.1893090E-003  0.1165059E+03  0.7546771E-02  0.1254023E+00
         -2   -1    0    0    0  501 -0.00000000000E+00  0.00000000000E+00  0.11661088730E+02  0.11661088730E+02  0.00000000000E+00 0.  1.
          2   -1    0    0  501    0  0.00000000000E+00 -0.00000000000E+00 -0.10566331205E+04  0.10566331205E+04  0.00000000000E+00 0. -1.
         23    2    1    2    0    0 -0.15923060871E+01  0.55086525095E+02 -0.51545258757E+03  0.52610929912E+03  0.89791780818E+02 0.  0.
         23    2    1    2    0    0  0.15923060871E+01 -0.55086525095E+02 -0.52951944420E+03  0.54218491011E+03  0.10264781673E+03 0.  0.
          5    1    4    4  502    0  0.17912828957E+02  0.26905322700E+02 -0.15943838082E+03  0.16274966393E+03  0.47000000000E+01 0. -1.
         -5    1    4    4    0  502 -0.16320522870E+02 -0.81991847795E+02 -0.37008106339E+03  0.37943524619E+03  0.47000000000E+01 0.  1.
          5    1    3    3  503    0  0.28169397920E+02 -0.95107755502E+01 -0.22667850190E+03  0.22866832543E+03  0.47000000000E+01 0. -1.
         -5    1    3    3    0  503 -0.29761704007E+02  0.64597300646E+02 -0.28877408567E+03  0.29744097369E+03  0.47000000000E+01 0.  1.
<mgrwt>
<rscale>  0 0.11361210E+03</rscale>
<asrwt>0</asrwt>
<pdfrwt beam="1">  1        2 0.16255898E+00 0.11650594E+03</pdfrwt>
<pdfrwt beam="2">  1       -2 0.17940133E-02 0.11650594E+03</pdfrwt>
<totfact> 0.20755944E+04</totfact>
</mgrwt>
</event>
<event>
 8    1  0.1893090E-003  0.9367902E+02  0.7546771E-02  0.1295249E+00
          1   -1    0    0  501    0  0.00000000000E+00  0.00000000000E+00  0.30932771277E+02  0.30932771277E+02  0.00000000000E+00 0. -1.
         -1   -1    0    0    0  501 -0.00000000000E+00 -0.00000000000E+00 -0.47542586047E+03  0.47542586047E+03  0.00000000000E+00 0.  1.
         23    2    1    2    0    0 -0.12095793107E+02 -0.12536185943E+01 -0.38662565917E+03  0.39781297047E+03  0.92886378862E+02 0.  0.
         23    2    1    2    0    0  0.12095793107E+02  0.12536185943E+01 -0.57867430031E+02  0.10854566128E+03  0.91025498373E+02 0.  0.
          5    1    3    3  502    0  0.36269538074E+02  0.18632582942E+02 -0.18003833766E+03  0.18465791498E+03  0.47000000000E+01 0. -1.
         -5    1    3    3    0  502 -0.48365331181E+02 -0.19886201537E+02 -0.20658732151E+03  0.21315505549E+03  0.47000000000E+01 0.  1.
          5    1    4    4  503    0  0.43674787202E+02  0.10916477523E+02 -0.59956295034E+02  0.75123257602E+02  0.47000000000E+01 0. -1.
         -5    1    4    4    0  503 -0.31578994094E+02 -0.96628589284E+01  0.20888650029E+01  0.33422403679E+02  0.47000000000E+01 0.  1.
<mgrwt>
<rscale>  0 0.93214372E+02</rscale>
<asrwt>0</asrwt>
<pdfrwt beam="1">  1        1 0.47588880E-02 0.93679022E+02</pdfrwt>
<pdfrwt beam="2">  1       -1 0.73142439E-01 0.93679022E+02</pdfrwt>
<totfact> 0.32855850E+03</totfact>
</mgrwt>
</event>
<event>
 8    1  0.1893090E-003  0.9491044E+02  0.7546771E-02  0.1294808E+00
          1   -1    0    0  501    0  0.00000000000E+00  0.00000000000E+00  0.84717006284E+02  0.84717006284E+02  0.00000000000E+00 0. -1.
         -1   -1    0    0    0  501 -0.00000000000E+00 -0.00000000000E+00 -0.10066542730E+03  0.10066542730E+03  0.00000000000E+00 0.  1.
         23    2    1    2    0    0 -0.11884008261E+02  0.15051199140E+02  0.12106746343E+00  0.94910514807E+02  0.92952799397E+02 0.  0.
         23    2    1    2    0    0  0.11884008261E+02 -0.15051199140E+02 -0.16069488478E+02  0.90471918776E+02  0.86943495324E+02 0.  0.
          5    1    3    3  502    0  0.26623257826E+02  0.19477429425E+02 -0.30591668590E+02  0.45233928653E+02  0.47000000000E+01 0. -1.
         -5    1    3    3    0  502 -0.38507266087E+02 -0.44262302851E+01  0.30712736053E+02  0.49676586154E+02  0.47000000000E+01 0.  1.
          5    1    4    4  503    0 -0.98423567334E+01 -0.47939097538E+02 -0.60802493771E+01  0.49538757467E+02  0.47000000000E+01 0. -1.
         -5    1    4    4    0  503  0.21726364994E+02  0.32887898399E+02 -0.99892391013E+01  0.40933161309E+02  0.47000000000E+01 0.  1.
<mgrwt>
<rscale>  0 0.93405764E+02</rscale>
<asrwt>0</asrwt>
<pdfrwt beam="1">  1        1 0.13033386E-01 0.94910438E+02</pdfrwt>
<pdfrwt beam="2">  1       -1 0.15486989E-01 0.94910438E+02</pdfrwt>
<totfact> 0.12393735E+04</totfact>
</mgrwt>
</event>
<event>
 8    1  0.1893090E-003  0.1070684E+03  0.7546771E-02  0.1266100E+00
         -2   -1    0    0    0  501 -0.00000000000E+00  0.00000000000E+00  0.41415133686E+02  0.41415133686E+02  0.00000000000E+00 0.  1.
          2   -1    0    0  501    0  0.00000000000E+00 -0.00000000000E+00 -0.29806804489E+03  0.29806804489E+03  0.00000000000E+00 0. -1.
         23    2    1    2    0    0 -0.47157031220E+02  0.38624029206E+02 -0.82965192182E+02  0.13544626473E+03  0.88016284230E+02 0.  0.
         23    2    1    2    0    0  0.47157031220E+02 -0.38624029206E+02 -0.17368771902E+03  0.20403691384E+03  0.88022935916E+02 0.  0.
          5    1    4    4  502    0 -0.15552481533E+02 -0.38585861660E+02 -0.49470470582E+02  0.64808686621E+02  0.47000000000E+01 0. -1.
         -5    1    4    4    0  502  0.62709512753E+02 -0.38167545854E-01 -0.12421724844E+03  0.13922822722E+03  0.47000000000E+01 0.  1.
          5    1    3    3  503    0 -0.53745740919E+02  0.62025535201E+02 -0.61310753648E+02  0.10255179275E+03  0.47000000000E+01 0. -1.
         -5    1    3    3    0  503  0.65887096991E+01 -0.23401505995E+02 -0.21654438534E+02  0.32894471976E+02  0.47000000000E+01 0.  1.
<mgrwt>
<rscale>  0 0.10706702E+03</rscale>
<asrwt>0</asrwt>
<pdfrwt beam="1">  1        2 0.45856620E-01 0.10706838E+03</pdfrwt>
<pdfrwt beam="2">  1       -2 0.63715593E-02 0.10706838E+03</pdfrwt>
<totfact> 0.13683327E+04</totfact>
</mgrwt>
</event>
<event>
 8    1  0.1893090E-003  0.9602478E+02  0.7546771E-02  0.1289273E+00
         -1   -1    0    0    0  501 -0.00000000000E+00  0.00000000000E+00  0.24450220061E+02  0.24450220061E+02  0.00000000000E+00 0.  1.
          1   -1    0    0  501    0  0.00000000000E+00 -0.00000000000E+00 -0.59832949281E+03  0.59832949281E+03  0.00000000000E+00 0. -1.
         23    2    1    2    0    0  0.22318907179E+01  0.25378383614E+02 -0.95786721247E+02  0.13513922486E+03  0.91861147587E+02 0.  0.
         23    2    1    2    0    0 -0.22318907179E+01 -0.25378383614E+02 -0.47809255151E+03  0.48764048802E+03  0.92583551775E+02 0.  0.
          5    1    3    3  502    0  0.44186017523E+02 -0.27893144841E+01 -0.47051405412E+02  0.64777381632E+02  0.47000000000E+01 0. -1.
         -5    1    4    4    0  503 -0.26913561593E+02  0.23268694097E+02 -0.11577745501E+03  0.12121171978E+03  0.47000000000E+01 0.  1.
          5    1    4    4  503    0  0.24681670875E+02 -0.48647077711E+02 -0.36231509650E+03  0.36642876824E+03  0.47000000000E+01 0. -1.
         -5    1    3    3    0  502 -0.41954126805E+02  0.28167698099E+02 -0.48735315835E+02  0.70361843223E+02  0.47000000000E+01 0.  1.
<mgrwt>
<rscale>  0 0.95850221E+02</rscale>
<asrwt>0</asrwt>
<pdfrwt beam="1">  1        1 0.92050696E-01 0.96024777E+02</pdfrwt>
<pdfrwt beam="2">  1       -1 0.37615721E-02 0.96024777E+02</pdfrwt>
<totfact> 0.88900244E+03</totfact>
</mgrwt>
</event>
<event>
 8    1  0.1893090E-003  0.1216703E+03  0.7546771E-02  0.1243055E+00
         -2   -1    0    0    0  501 -0.00000000000E+00  0.00000000000E+00  0.15628526659E+02  0.15628526659E+02  0.00000000000E+00 0.  1.
          2   -1    0    0  501    0  0.00000000000E+00 -0.00000000000E+00 -0.90770208434E+03  0.90770208434E+03  0.00000000000E+00 0. -1.
         23    2    1    2    0    0  0.58700485228E+02 -0.39158413310E+02 -0.40959937900E+03  0.42728832731E+03  0.99118792772E+02 0.  0.
         23    2    1    2    0    0 -0.58700485228E+02  0.39158413310E+02 -0.48247417868E+03  0.49604228369E+03  0.91090536352E+02 0.  0.
          5    1    3    3  502    0  0.30344707846E+02 -0.69080912104E+02 -0.31579401880E+03  0.32471668578E+03  0.47000000000E+01 0. -1.
         -5    1    3    3    0  502  0.28355777382E+02  0.29922498795E+02 -0.93805360201E+02  0.10257164154E+03  0.47000000000E+01 0.  1.
          5    1    4    4  503    0  0.97651147447E-02 -0.26419922092E+02 -0.12682727793E+03  0.12963510638E+03  0.47000000000E+01 0. -1.
         -5    1    4    4    0  503 -0.58710250343E+02  0.65578335402E+02 -0.35564690075E+03  0.36640717731E+03  0.47000000000E+01 0.  1.
<mgrwt>
<rscale>  0 0.12002573E+03</rscale>
<asrwt>0</asrwt>
<pdfrwt beam="1">  1        2 0.13964651E+00 0.12167031E+03</pdfrwt>
<pdfrwt beam="2">  1       -2 0.24043882E-02 0.12167031E+03</pdfrwt>
<totfact> 0.16736827E+04</totfact>
</mgrwt>
</event>
<event>
 8    1  0.1893090E-003  0.9455008E+02  0.7546771E-02  0.1292847E+00
         -2   -1    0    0    0  501 -0.00000000000E+00  0.00000000000E+00  0.58386243332E+02  0.58386243332E+02  0.00000000000E+00 0.  1.
          2   -1    0    0  501    0  0.00000000000E+00 -0.00000000000E+00 -0.15675291073E+03  0.15675291073E+03  0.00000000000E+00 0. -1.
         23    2    1    2    0    0 -0.51934719994E+01 -0.23921006019E+02 -0.29340276544E+02  0.98997829685E+02  0.91326511892E+02 0.  0.
         23    2    1    2    0    0  0.51934719994E+01  0.23921006019E+02 -0.69026390857E+02  0.11614132438E+03  0.90138659373E+02 0.  0.
          5    1    4    4  502    0  0.10631519288E+02 -0.19046636937E+02 -0.69061384009E+02  0.72576637716E+02  0.47000000000E+01 0. -1.
         -5    1    4    4    0  502 -0.54380472891E+01  0.42967642956E+02  0.34993152287E-01  0.43564686663E+02  0.47000000000E+01 0.  1.
          5    1    3    3  503    0  0.36214614596E+02 -0.23288269255E+02  0.67872654650E+01  0.43840606379E+02  0.47000000000E+01 0. -1.
         -5    1    3    3    0  503 -0.41408086595E+02 -0.63273676406E+00 -0.36127542009E+02  0.55157223306E+02  0.47000000000E+01 0.  1.
<mgrwt>
<rscale>  0 0.94262059E+02</rscale>
<asrwt>0</asrwt>
<pdfrwt beam="1">  1        2 0.24115832E-01 0.94550084E+02</pdfrwt>
<pdfrwt beam="2">  1       -2 0.89824990E-02 0.94550084E+02</pdfrwt>
<totfact> 0.15888022E+04</totfact>
</mgrwt>
</event>
<event>
 8    1  0.1893090E-003  0.9244829E+02  0.7546771E-02  0.1297633E+00
         -3   -1    0    0    0  501 -0.00000000000E+00  0.00000000000E+00  0.30744413318E+02  0.30744413318E+02  0.00000000000E+00 0.  1.
          3   -1    0    0  501    0  0.00000000000E+00 -0.00000000000E+00 -0.33836750471E+03  0.33836750471E+03  0.00000000000E+00 0. -1.
         23    2    1    2    0    0  0.52661782656E+01  0.20626889118E+01 -0.73188320265E+02  0.11710726060E+03  0.91244687203E+02 0.  0.
         23    2    1    2    0    0 -0.52661782656E+01 -0.20626889118E+01 -0.23443477113E+03  0.25200465743E+03  0.92275121964E+02 0.  0.
          5    1    4    4  502    0 -0.54241643727E+01 -0.41626960899E+02 -0.61968901004E+02  0.74996400744E+02  0.47000000000E+01 0. -1.
         -5    1    4    4    0  502  0.15798610714E+00  0.39564271987E+02 -0.17246587013E+03  0.17700825669E+03  0.47000000000E+01 0.  1.
          5    1    3    3  503    0 -0.29431442742E+02  0.43388603261E+01 -0.76154177821E+02  0.81893738041E+02  0.47000000000E+01 0. -1.
         -5    1    3    3    0  503  0.34697621008E+02 -0.22761714143E+01  0.29658575558E+01  0.35213522558E+02  0.47000000000E+01 0.  1.
<mgrwt>
<rscale>  0 0.92190085E+02</rscale>
<asrwt>0</asrwt>
<pdfrwt beam="1">  1        3 0.52056536E-01 0.92448285E+02</pdfrwt>
<pdfrwt beam="2">  1       -3 0.47299100E-02 0.92448285E+02</pdfrwt>
<totfact> 0.19582302E+03</totfact>
</mgrwt>
</event>
<event>
 8    1  0.1893090E-003  0.1099651E+03  0.7546771E-02  0.1266412E+00
          1   -1    0    0  501    0  0.00000000000E+00  0.00000000000E+00  0.62736986091E+03  0.62736986091E+03  0.00000000000E+00 0. -1.
         -1   -1    0    0    0  501 -0.00000000000E+00 -0.00000000000E+00 -0.22880557173E+02  0.22880557173E+02  0.00000000000E+00 0.  1.
         23    2    1    2    0    0 -0.87209402333E+01  0.63004267001E+02  0.12859871275E+03  0.16182009863E+03  0.74850002946E+02 0.  0.
         23    2    1    2    0    0  0.87209402333E+01 -0.63004267001E+02  0.47589059099E+03  0.48843031945E+03  0.89703566882E+02 0.  0.
          5    1    3    3  502    0 -0.27551254206E+02  0.12395195299E+02  0.11286505494E+02  0.32591220921E+02  0.47000000000E+01 0. -1.
         -5    1    3    3    0  502  0.18830313973E+02  0.50609071702E+02  0.11731220726E+03  0.12922887771E+03  0.47000000000E+01 0.  1.
          5    1    4    4  503    0  0.33076773534E+02 -0.60846952514E+02  0.43538566157E+03  0.44088455278E+03  0.47000000000E+01 0. -1.
         -5    1    4    4    0  503 -0.24355833300E+02 -0.21573144869E+01  0.40504929417E+02  0.47545766674E+02  0.47000000000E+01 0.  1.
<mgrwt>
<rscale>  0 0.10690462E+03</rscale>
<asrwt>0</asrwt>
<pdfrwt beam="1">  1        1 0.96518427E-01 0.10996510E+03</pdfrwt>
<pdfrwt beam="2">  1       -1 0.35200862E-02 0.10996510E+03</pdfrwt>
<totfact> 0.92715268E+03</totfact>
</mgrwt>
</event>
<event>
 8    1  0.1893090E-003  0.1041051E+03  0.7546771E-02  0.1272873E+00
          3   -1    0    0  501    0  0.00000000000E+00  0.00000000000E+00  0.12654364825E+03  0.12654364825E+03  0.00000000000E+00 0. -1.
         -3   -1    0    0    0  501 -0.00000000000E+00 -0.00000000000E+00 -0.14150916337E+03  0.14150916337E+03  0.00000000000E+00 0.  1.
         23    2    1    2    0    0  0.47060928346E+02 -0.74635125584E+01 -0.92841490800E+02  0.13804302033E+03  0.90365358694E+02 0.  0.
         23    2    1    2    0    0 -0.47060928346E+02  0.74635125584E+01  0.77875975689E+02  0.13000979129E+03  0.92560484249E+02 0.  0.
          5    1    3    3  502    0 -0.34247456252E+01  0.24592947760E+02  0.25055118584E+01  0.25395069439E+02  0.47000000000E+01 0. -1.
         -5    1    4    4    0  503  0.99569289664E+01  0.37603298571E+02  0.24993871407E+02  0.46475069723E+02  0.47000000000E+01 0.  1.
          5    1    4    4  503    0 -0.57017857312E+02 -0.30139786013E+02  0.52882104282E+02  0.83534721563E+02  0.47000000000E+01 0. -1.
         -5    1    3    3    0  502  0.50485673971E+02 -0.32056460319E+02 -0.95347002659E+02  0.11264795089E+03  0.47000000000E+01 0.  1.
<mgrwt>
<rscale>  0 0.10361499E+03</rscale>
<asrwt>0</asrwt>
<pdfrwt beam="1">  1        3 0.19468254E-01 0.10410513E+03</pdfrwt>
<pdfrwt beam="2">  1       -3 0.21770640E-01 0.10410513E+03</pdfrwt>
<totfact> 0.10012666E+03</totfact>
</mgrwt>
</event>
<event>
 8    1  0.1893090E-003  0.1130054E+03  0.7546771E-02  0.1268046E+00
         -1   -1    0    0    0  501 -0.00000000000E+00  0.00000000000E+00  0.52522383896E+03  0.52522383896E+03  0.00000000000E+00 0.  1.
          1   -1    0    0  501    0  0.00000000000E+00 -0.00000000000E+00 -0.34777379892E+02  0.34777379892E+02  0.00000000000E+00 0. -1.
         23    2    1    2    0    0 -0.64734047736E+02  0.78429545225E+01  0.44903000764E+03  0.46303149436E+03  0.92294139248E+02 0.  0.
         23    2    1    2    0    0  0.64734047736E+02 -0.78429545225E+01  0.41416451435E+02  0.96969724495E+02  0.58615664692E+02 0.  0.
          5    1    4    4  502    0  0.43981153536E+02 -0.24885514317E+02  0.46965943521E+02  0.69148539681E+02  0.47000000000E+01 0. -1.
         -5    1    3    3    0  503 -0.43361787480E+02 -0.39548129273E+02  0.19502342344E+03  0.20371677602E+03  0.47000000000E+01 0.  1.
          5    1    3    3  503    0 -0.21372260256E+02  0.47391083796E+02  0.25400658420E+03  0.25931471834E+03  0.47000000000E+01 0. -1.
         -5    1    4    4    0  502  0.20752894200E+02  0.17042559795E+02 -0.55494920860E+01  0.27821184814E+02  0.47000000000E+01 0.  1.
<mgrwt>
<rscale>  0 0.10605952E+03</rscale>
<asrwt>0</asrwt>
<pdfrwt beam="1">  1        1 0.53503665E-02 0.11300538E+03</pdfrwt>
<pdfrwt beam="2">  1       -1 0.80803662E-01 0.11300538E+03</pdfrwt>
<totfact> 0.23212720E+03</totfact>
</mgrwt>
</event>
<event>
 7    1  0.1893090E-003  0.1423626E+03  0.7546771E-02  0.1229781E+00
          1   -1    0    0  501    0  0.00000000000E+00  0.00000000000E+00  0.84960758887E+02  0.84960758887E+02  0.00000000000E+00 0. -1.
         -1   -1    0    0    0  501 -0.00000000000E+00 -0.00000000000E+00 -0.40744402598E+03  0.40744402598E+03  0.00000000000E+00 0.  1.
         23    2    1    2    0    0  0.21073698979E+02  0.33490314726E+02 -0.33638719426E+03  0.34936486324E+03  0.85637382224E+02 0.  0.
          5    1    3    3  502    0 -0.15704462876E+02  0.40667333840E+02 -0.26500724196E+03  0.26861010869E+03  0.47000000000E+01 0. -1.
         -5    1    1    2    0  503 -0.61112682812E+02 -0.45770691655E+01 -0.37177165605E+02  0.71832730737E+02  0.47000000000E+01 0.  1.
          5    1    1    2  503    0  0.40038983833E+02 -0.28913245560E+02  0.51081092775E+02  0.71207190889E+02  0.47000000000E+01 0. -1.
         -5    1    3    3    0  502  0.36778161855E+02 -0.71770191141E+01 -0.71379952303E+02  0.80754754557E+02  0.47000000000E+01 0.  1.
<mgrwt>
<rscale>  0 0.12844504E+03</rscale>
<asrwt>0</asrwt>
<pdfrwt beam="1">  1        1 0.13070886E-01 0.14236257E+03</pdfrwt>
<pdfrwt beam="2">  1       -1 0.62683697E-01 0.14236257E+03</pdfrwt>
<totfact> 0.11762120E+03</totfact>
</mgrwt>
</event>
<event>
 8    1  0.1893090E-003  0.1148766E+03  0.7546771E-02  0.1253906E+00
          1   -1    0    0  501    0  0.00000000000E+00  0.00000000000E+00  0.10007521608E+03  0.10007521608E+03  0.00000000000E+00 0. -1.
         -1   -1    0    0    0  501 -0.00000000000E+00 -0.00000000000E+00 -0.33064591706E+03  0.33064591706E+03  0.00000000000E+00 0.  1.
         23    2    1    2    0    0 -0.48140276941E+02  0.49305809226E+02  0.54844168562E+02  0.12305527185E+03  0.85942818305E+02 0.  0.
         23    2    1    2    0    0  0.48140276941E+02 -0.49305809226E+02 -0.28541486954E+03  0.30766586129E+03  0.91913466684E+02 0.  0.
          5    1    3    3  502    0 -0.23067183388E+02  0.59319503413E+02  0.67478686978E+02  0.92878208590E+02  0.47000000000E+01 0. -1.
         -5    1    3    3    0  502 -0.25073093553E+02 -0.10013694186E+02 -0.12634518416E+02  0.30177063264E+02  0.47000000000E+01 0.  1.
          5    1    4    4  503    0  0.61466259063E+02  0.18851706830E+01 -0.15963504381E+03  0.17113471911E+03  0.47000000000E+01 0. -1.
         -5    1    4    4    0  503 -0.13325982121E+02 -0.51190979909E+02 -0.12577982573E+03  0.13653114218E+03  0.47000000000E+01 0.  1.
<mgrwt>
<rscale>  0 0.11367826E+03</rscale>
<asrwt>0</asrwt>
<pdfrwt beam="1">  1        1 0.15396187E-01 0.11487661E+03</pdfrwt>
<pdfrwt beam="2">  1       -1 0.50868603E-01 0.11487661E+03</pdfrwt>
<totfact> 0.13967871E+03</totfact>
</mgrwt>
</event>
<event>
 7    1  0.1893090E-003  0.1346722E+03  0.7546771E-02  0.1238862E+00
          2   -1    0    0  501    0  0.00000000000E+00  0.00000000000E+00  0.19498962310E+03  0.19498962310E+03  0.00000000000E+00 0. -1.
         -2   -1    0    0    0  501 -0.00000000000E+00 -0.00000000000E+00 -0.11872079997E+03  0.11872079997E+03  0.00000000000E+00 0.  1.
         23    2    1    2    0    0  0.15110280275E+02  0.13710516784E+02  0.13753884187E+03  0.16575563638E+03  0.90231364429E+02 0.  0.
          5    1    3    3  502    0  0.21162135666E+01  0.45688504494E+02  0.11604731627E+03  0.12482382552E+03  0.47000000000E+01 0. -1.
         -5    1    1    2    0  503  0.15513076455E+01 -0.71429287710E+02 -0.48147664980E+02  0.86283470846E+02  0.47000000000E+01 0.  1.
          5    1    1    2  503    0 -0.16661587920E+02  0.57718770926E+02 -0.13122353761E+02  0.61671315841E+02  0.47000000000E+01 0. -1.
         -5    1    3    3    0  502  0.12994066708E+02 -0.31977987711E+02  0.21491525600E+02  0.40931810860E+02  0.47000000000E+01 0.  1.
<mgrwt>
<rscale>  0 0.12260410E+03</rscale>
<asrwt>0</asrwt>
<pdfrwt beam="1">  1        2 0.29998404E-01 0.13467221E+03</pdfrwt>
<pdfrwt beam="2">  1       -2 0.18264738E-01 0.13467221E+03</pdfrwt>
<totfact> 0.41322031E+03</totfact>
</mgrwt>
</event>
<event>
 8    1  0.1893090E-003  0.9623090E+02  0.7546771E-02  0.1289376E+00
          1   -1    0    0  501    0  0.00000000000E+00  0.00000000000E+00  0.13054451695E+03  0.13054451695E+03  0.00000000000E+00 0. -1.
         -1   -1    0    0    0  501 -0.00000000000E+00 -0.00000000000E+00 -0.75359145229E+02  0.75359145229E+02  0.00000000000E+00 0.  1.
         23    2    1    2    0    0  0.25819571431E+02  0.15007633473E+02 -0.41279917759E+00  0.96231788658E+02  0.91479546424E+02 0.  0.
         23    2    1    2    0    0 -0.25819571431E+02 -0.15007633473E+02  0.55598170898E+02  0.10967187352E+03  0.89693276798E+02 0.  0.
          5    1    4    4  502    0 -0.27150289664E+02  0.30486171290E+02  0.49074346590E+01  0.41384994668E+02  0.47000000000E+01 0. -1.
         -5    1    3    3    0  503  0.59428754129E+02  0.66635970526E+01  0.73465333520E+01  0.60433781078E+02  0.47000000000E+01 0.  1.
          5    1    3    3  503    0 -0.33609182698E+02  0.83440364205E+01 -0.77593325296E+01  0.35798007581E+02  0.47000000000E+01 0. -1.
         -5    1    4    4    0  502  0.13307182328E+01 -0.45493804763E+02  0.50690736239E+02  0.68286878851E+02  0.47000000000E+01 0.  1.
<mgrwt>
<rscale>  0 0.95803958E+02</rscale>
<asrwt>0</asrwt>
<pdfrwt beam="1">  1        1 0.20083772E-01 0.96230903E+02</pdfrwt>
<pdfrwt beam="2">  1       -1 0.11593715E-01 0.96230903E+02</pdfrwt>
<totfact> 0.11170949E+04</totfact>
</mgrwt>
</event>
<event>
 8    1  0.1893090E-003  0.1055775E+03  0.7546771E-02  0.1269224E+00
         -1   -1    0    0    0  501 -0.00000000000E+00  0.00000000000E+00  0.17117638117E+03  0.17117638117E+03  0.00000000000E+00 0.  1.
          1   -1    0    0  501    0  0.00000000000E+00 -0.00000000000E+00 -0.91965120762E+02  0.91965120762E+02  0.00000000000E+00 0. -1.
         23    2    1    2    0    0  0.48642600615E+02  0.13306779519E+02 -0.31942843251E+02  0.10983837213E+03  0.92200595343E+02 0.  0.
         23    2    1    2    0    0 -0.48642600615E+02 -0.13306779519E+02  0.11115410366E+03  0.15330312981E+03  0.92754740426E+02 0.  0.
          5    1    4    4  502    0  0.10943806888E+02  0.17671198874E+02 -0.22425336785E+01  0.21427952215E+02  0.47000000000E+01 0. -1.
         -5    1    4    4    0  502 -0.59586407503E+02 -0.30977978393E+02  0.11339663734E+03  0.13187517759E+03  0.47000000000E+01 0.  1.
          5    1    3    3  503    0  0.68890355935E+02  0.31946149817E+02 -0.30225144847E+02  0.81866275169E+02  0.47000000000E+01 0. -1.
         -5    1    3    3    0  503 -0.20247755320E+02 -0.18639370298E+02 -0.17176984037E+01  0.27972096961E+02  0.47000000000E+01 0.  1.
<mgrwt>
<rscale>  0 0.10545569E+03</rscale>
<asrwt>0</asrwt>
<pdfrwt beam="1">  1        1 0.14148480E-01 0.10557753E+03</pdfrwt>
<pdfrwt beam="2">  1       -1 0.26334828E-01 0.10557753E+03</pdfrwt>
<totfact> 0.48218065E+03</totfact>
</mgrwt>
</event>
<event>
 8    1  0.1893090E-003  0.1105860E+03  0.7546771E-02  0.1259988E+00
         -1   -1    0    0    0  501 -0.00000000000E+00  0.00000000000E+00  0.63119128917E+02  0.63119128917E+02  0.00000000000E+00 0.  1.
          1   -1    0    0  501    0  0.00000000000E+00 -0.00000000000E+00 -0.21928585664E+03  0.21928585664E+03  0.00000000000E+00 0. -1.
         23    2    1    2    0    0  0.11067849836E+02  0.61664703535E+02 -0.27810052843E+02  0.11298036531E+03  0.89811641477E+02 0.  0.
         23    2    1    2    0    0 -0.11067849836E+02 -0.61664703535E+02 -0.12835667488E+03  0.16942462024E+03  0.91127564419E+02 0.  0.
          5    1    3    3  502    0 -0.29956895197E+02 -0.47802366864E+01 -0.13112035517E+02  0.33380858407E+02  0.47000000000E+01 0. -1.
         -5    1    3    3    0  502  0.41024745033E+02  0.66444940222E+02 -0.14698017326E+02  0.79599506904E+02  0.47000000000E+01 0.  1.
          5    1    4    4  503    0 -0.32165800843E+02 -0.68358207524E+02 -0.12557814240E+03  0.14662688406E+03  0.47000000000E+01 0. -1.
         -5    1    4    4    0  503  0.21097951008E+02  0.66935039884E+01 -0.27785324744E+01  0.22797736183E+02  0.47000000000E+01 0.  1.
<mgrwt>
<rscale>  0 0.11031455E+03</rscale>
<asrwt>0</asrwt>
<pdfrwt beam="1">  1        1 0.33736286E-01 0.11058601E+03</pdfrwt>
<pdfrwt beam="2">  1       -1 0.97106351E-02 0.11058601E+03</pdfrwt>
<totfact> 0.77697462E+03</totfact>
</mgrwt>
</event>
<event>
 8    1  0.1893090E-003  0.9618684E+02  0.7546771E-02  0.1288850E+00
          1   -1    0    0  501    0  0.00000000000E+00  0.00000000000E+00  0.26119734335E+03  0.26119734335E+03  0.00000000000E+00 0. -1.
         -1   -1    0    0    0  501 -0.00000000000E+00 -0.00000000000E+00 -0.58046491746E+02  0.58046491746E+02  0.00000000000E+00 0.  1.
         23    2    1    2    0    0  0.33737661541E+01  0.28865230158E+02  0.20151552043E+03  0.22304309053E+03  0.91077612223E+02 0.  0.
         23    2    1    2    0    0 -0.33737661541E+01 -0.28865230158E+02  0.16353311763E+01  0.96200744570E+02  0.91691467093E+02 0.  0.
          5    1    4    4  502    0  0.40679925285E+02 -0.25552577955E+02 -0.11981106915E+02  0.49733564966E+02  0.47000000000E+01 0. -1.
         -5    1    4    4    0  502 -0.44053691439E+02 -0.33126522025E+01  0.13616438091E+02  0.46467179604E+02  0.47000000000E+01 0.  1.
          5    1    3    3  503    0  0.45649708375E+02  0.65173295672E+01  0.81374195619E+02  0.93649459005E+02  0.47000000000E+01 0. -1.
         -5    1    3    3    0  503 -0.42275942220E+02  0.22347900591E+02  0.12014132481E+03  0.12939363152E+03  0.47000000000E+01 0.  1.
<mgrwt>
<rscale>  0 0.96040263E+02</rscale>
<asrwt>0</asrwt>
<pdfrwt beam="1">  1        1 0.40184206E-01 0.96186844E+02</pdfrwt>
<pdfrwt beam="2">  1       -1 0.89302297E-02 0.96186844E+02</pdfrwt>
<totfact> 0.70385644E+03</totfact>
</mgrwt>
</event>
<event>
 8    1  0.1893090E-003  0.9650636E+02  0.7546771E-02  0.1287966E+00
         -1   -1    0    0    0  501 -0.00000000000E+00  0.00000000000E+00  0.27414499527E+02  0.27414499527E+02  0.00000000000E+00 0.  1.
          1   -1    0    0  501    0  0.00000000000E+00 -0.00000000000E+00 -0.33879446080E+03  0.33879446080E+03  0.00000000000E+00 0. -1.
         23    2    1    2    0    0  0.24823602554E+02  0.20640058118E+02 -0.15495025079E+03  0.18240544864E+03  0.90663908082E+02 0.  0.
         23    2    1    2    0    0 -0.24823602554E+02 -0.20640058118E+02 -0.15642971048E+03  0.18380351169E+03  0.90946431186E+02 0.  0.
          5    1    3    3  502    0  0.48867783886E+02 -0.54765234235E+01 -0.12913671428E+03  0.13826219146E+03  0.47000000000E+01 0. -1.
         -5    1    4    4    0  503 -0.48584680951E+02 -0.38205335781E+02 -0.12940782215E+03  0.14348725845E+03  0.47000000000E+01 0.  1.
          5    1    4    4  503    0  0.23761078397E+02  0.17565277663E+02 -0.27021888331E+02  0.40316253235E+02  0.47000000000E+01 0. -1.
         -5    1    3    3    0  502 -0.24044181332E+02  0.26116581542E+02 -0.25813536512E+02  0.44143257182E+02  0.47000000000E+01 0.  1.
<mgrwt>
<rscale>  0 0.96439736E+02</rscale>
<asrwt>0</asrwt>
<pdfrwt beam="1">  1        1 0.52122224E-01 0.96506355E+02</pdfrwt>
<pdfrwt beam="2">  1       -1 0.42176154E-02 0.96506355E+02</pdfrwt>
<totfact> 0.15520794E+04</totfact>
</mgrwt>
</event>
<event>
 8    1  0.1893090E-003  0.1007576E+03  0.7546771E-02  0.1279479E+00
         -2   -1    0    0    0  501 -0.00000000000E+00  0.00000000000E+00  0.92072126458E+01  0.92072126458E+01  0.00000000000E+00 0.  1.
          2   -1    0    0  501    0  0.00000000000E+00 -0.00000000000E+00 -0.11303854118E+04  0.11303854118E+04  0.00000000000E+00 0. -1.
         23    2    1    2    0    0 -0.63527664990E+01  0.34620215549E+02 -0.45247290247E+03  0.46355564003E+03  0.94409676201E+02 0.  0.
         23    2    1    2    0    0  0.63527664990E+01 -0.34620215549E+02 -0.66870529666E+03  0.67603698440E+03  0.92845643556E+02 0.  0.
          5    1    3    3  502    0 -0.37072570309E+02  0.22075924808E+02 -0.39218124270E+03  0.39457564427E+03  0.47000000000E+01 0. -1.
         -5    1    3    3    0  502  0.30719803810E+02  0.12544290741E+02 -0.60291659778E+02  0.68979995761E+02  0.47000000000E+01 0.  1.
          5    1    4    4  503    0 -0.16851240073E+02 -0.59665278200E+02 -0.49970090411E+03  0.50355435981E+03  0.47000000000E+01 0. -1.
         -5    1    4    4    0  503  0.23204006572E+02  0.25045062651E+02 -0.16900439255E+03  0.17248262459E+03  0.47000000000E+01 0.  1.
<mgrwt>
<rscale>  0 0.10038964E+03</rscale>
<asrwt>0</asrwt>
<pdfrwt beam="1">  1        2 0.17390540E+00 0.10075765E+03</pdfrwt>
<pdfrwt beam="2">  1       -2 0.14164946E-02 0.10075765E+03</pdfrwt>
<totfact> 0.26147667E+04</totfact>
</mgrwt>
</event>
<event>
 8    1  0.1893090E-003  0.9473804E+02  0.7546771E-02  0.1294730E+00
         -1   -1    0    0    0  501 -0.00000000000E+00  0.00000000000E+00  0.12133775674E+03  0.12133775674E+03  0.00000000000E+00 0.  1.
          1   -1    0    0  501    0  0.00000000000E+00 -0.00000000000E+00 -0.40936460862E+03  0.40936460862E+03  0.00000000000E+00 0. -1.
         23    2    1    2    0    0 -0.46560268995E+01 -0.26052373524E+02  0.96874215215E+02  0.13549874556E+03  0.90966431836E+02 0.  0.
         23    2    1    2    0    0  0.46560268995E+01  0.26052373524E+02 -0.38490106709E+03  0.39520361980E+03  0.85654333843E+02 0.  0.
          5    1    3    3  502    0 -0.21795764242E+02  0.13551658802E+02 -0.33227438365E+01  0.26302726509E+02  0.47000000000E+01 0. -1.
         -5    1    4    4    0  503  0.10839154114E+02 -0.28684748981E+02 -0.90852510254E+02  0.96002972379E+02  0.47000000000E+01 0.  1.
          5    1    4    4  503    0 -0.61831272149E+01  0.54737122505E+02 -0.29404855683E+03  0.29920064742E+03  0.47000000000E+01 0. -1.
         -5    1    3    3    0  502  0.17139737343E+02 -0.39604032326E+02  0.10019695905E+03  0.10919601905E+03  0.47000000000E+01 0.  1.
<mgrwt>
<rscale>  0 0.93439503E+02</rscale>
<asrwt>0</asrwt>
<pdfrwt beam="1">  1        1 0.62979170E-01 0.94738041E+02</pdfrwt>
<pdfrwt beam="2">  1       -1 0.18667347E-01 0.94738041E+02</pdfrwt>
<totfact> 0.13025010E+03</totfact>
</mgrwt>
</event>
<event>
 8    1  0.1893090E-003  0.1261505E+03  0.7546771E-02  0.1233329E+00
          1   -1    0    0  501    0  0.00000000000E+00  0.00000000000E+00  0.16289711083E+03  0.16289711083E+03  0.00000000000E+00 0. -1.
         -1   -1    0    0    0  501 -0.00000000000E+00 -0.00000000000E+00 -0.12224474778E+03  0.12224474778E+03  0.00000000000E+00 0.  1.
         23    2    1    2    0    0  0.80325876022E+02  0.35350168782E+02 -0.43696403090E+02  0.13338989454E+03  0.90452238954E+02 0.  0.
         23    2    1    2    0    0 -0.80325876022E+02 -0.35350168782E+02  0.84348766136E+02  0.15175196407E+03  0.90620436209E+02 0.  0.
          5    1    3    3  502    0  0.58163731388E+02 -0.16131415586E+02  0.25161652625E+01  0.60594251422E+02  0.47000000000E+01 0. -1.
         -5    1    4    4    0  503 -0.53686990829E+02 -0.15530761898E+02 -0.50093257308E+01  0.56308799434E+02  0.47000000000E+01 0.  1.
          5    1    4    4  503    0 -0.26638885193E+02 -0.19819406884E+02  0.89358091867E+02  0.95443164636E+02  0.47000000000E+01 0. -1.
         -5    1    3    3    0  502  0.22162144635E+02  0.51481584368E+02 -0.46212568353E+02  0.72795643122E+02  0.47000000000E+01 0.  1.
<mgrwt>
<rscale>  0 0.12612028E+03</rscale>
<asrwt>0</asrwt>
<pdfrwt beam="1">  1        1 0.25061094E-01 0.12615048E+03</pdfrwt>
<pdfrwt beam="2">  1       -1 0.18806884E-01 0.12615048E+03</pdfrwt>
<totfact> 0.40653973E+03</totfact>
</mgrwt>
</event>
<event>
 8    1  0.1893090E-003  0.1706362E+03  0.7546771E-02  0.1178142E+00
         -1   -1    0    0    0  501 -0.00000000000E+00  0.00000000000E+00  0.98379304318E+02  0.98379304318E+02  0.00000000000E+00 0.  1.
          1   -1    0    0  501    0  0.00000000000E+00 -0.00000000000E+00 -0.29158569312E+03  0.29158569312E+03  0.00000000000E+00 0. -1.
         23    2    1    2    0    0  0.39836346526E+02 -0.13788972187E+03 -0.79802419412E+02  0.18508171655E+03  0.85359860314E+02 0.  0.
         23    2    1    2    0    0 -0.39836346526E+02  0.13788972187E+03 -0.11340396939E+03  0.20488328090E+03  0.92283197898E+02 0.  0.
          5    1    4    4  502    0 -0.35714491278E+02  0.43738967806E+02 -0.92124357391E+02  0.10815548722E+03  0.47000000000E+01 0. -1.
         -5    1    3    3    0  503  0.55655307102E+02 -0.81723885089E+02 -0.19217092499E+02  0.10083498027E+03  0.47000000000E+01 0.  1.
          5    1    3    3  503    0 -0.15818960576E+02 -0.56165836783E+02 -0.60585326913E+02  0.84246736271E+02  0.47000000000E+01 0. -1.
         -5    1    4    4    0  502 -0.41218552480E+01  0.94150754066E+02 -0.21279612003E+02  0.96727793673E+02  0.47000000000E+01 0.  1.
<mgrwt>
<rscale>  0 0.16971810E+03</rscale>
<asrwt>0</asrwt>
<pdfrwt beam="1">  1        1 0.44859337E-01 0.17063616E+03</pdfrwt>
<pdfrwt beam="2">  1       -1 0.15135278E-01 0.17063616E+03</pdfrwt>
<totfact> 0.28198728E+03</totfact>
</mgrwt>
</event>
<event>
 8    1  0.1893090E-003  0.1188586E+03  0.7546771E-02  0.1250272E+00
          1   -1    0    0  501    0  0.00000000000E+00  0.00000000000E+00  0.83172504389E+02  0.83172504389E+02  0.00000000000E+00 0. -1.
         -1   -1    0    0    0  501 -0.00000000000E+00 -0.00000000000E+00 -0.19370342031E+03  0.19370342031E+03  0.00000000000E+00 0.  1.
         23    2    1    2    0    0 -0.37961374607E+02  0.38538152349E+02 -0.11617334441E+03  0.15788348516E+03  0.92220896681E+02 0.  0.
         23    2    1    2    0    0  0.37961374607E+02 -0.38538152349E+02  0.56424284877E+01  0.11899243955E+03  0.10583528958E+03 0.  0.
          5    1    3    3  502    0  0.57963542118E+01  0.28368737248E+02  0.39031623426E+01  0.29592357991E+02  0.47000000000E+01 0. -1.
         -5    1    4    4    0  503 -0.21098397633E+02 -0.12945829808E+02 -0.34700408812E+02  0.42882925084E+02  0.47000000000E+01 0.  1.
          5    1    4    4  503    0  0.59059772241E+02 -0.25592322541E+02  0.40342837299E+02  0.76109514461E+02  0.47000000000E+01 0. -1.
         -5    1    3    3    0  502 -0.43757728819E+02  0.10169415101E+02 -0.12007650676E+03  0.12829112717E+03  0.47000000000E+01 0.  1.
<mgrwt>
<rscale>  0 0.11575325E+03</rscale>
<asrwt>0</asrwt>
<pdfrwt beam="1">  1        1 0.12795770E-01 0.11885859E+03</pdfrwt>
<pdfrwt beam="2">  1       -1 0.29800526E-01 0.11885859E+03</pdfrwt>
<totfact> 0.45107339E+03</totfact>
</mgrwt>
</event>
<event>
 8    1  0.1893090E-003  0.1026611E+03  0.7546771E-02  0.1275361E+00
          2   -1    0    0  501    0  0.00000000000E+00  0.00000000000E+00  0.33593793955E+03  0.33593793955E+03  0.00000000000E+00 0. -1.
         -2   -1    0    0    0  501 -0.00000000000E+00 -0.00000000000E+00 -0.62536805534E+02  0.62536805534E+02  0.00000000000E+00 0.  1.
         23    2    1    2    0    0 -0.45970075229E+02 -0.39471544050E+01  0.27846975764E+03  0.29679069174E+03  0.91708674278E+02 0.  0.
         23    2    1    2    0    0  0.45970075229E+02  0.39471544050E+01 -0.50686236296E+01  0.10168405334E+03  0.90471696755E+02 0.  0.
          5    1    3    3  502    0 -0.59621927617E+02 -0.24646066359E+02  0.25219638394E+03  0.26035996027E+03  0.47000000000E+01 0. -1.
         -5    1    3    3    0  502  0.13651852388E+02  0.20698911954E+02  0.26273373703E+02  0.36430731470E+02  0.47000000000E+01 0.  1.
          5    1    4    4  503    0  0.32451391843E+02 -0.17400457738E+02  0.36983448766E+02  0.52399754243E+02  0.47000000000E+01 0. -1.
         -5    1    4    4    0  503  0.13518683386E+02  0.21347612143E+02 -0.42052072396E+02  0.49284299097E+02  0.47000000000E+01 0.  1.
<mgrwt>
<rscale>  0 0.10238414E+03</rscale>
<asrwt>0</asrwt>
<pdfrwt beam="1">  1        2 0.51682759E-01 0.10266114E+03</pdfrwt>
<pdfrwt beam="2">  1       -2 0.96210472E-02 0.10266114E+03</pdfrwt>
<totfact> 0.63955985E+03</totfact>
</mgrwt>
</event>
<event>
 8    1  0.1893090E-003  0.9085719E+02  0.7546771E-02  0.1301179E+00
         -1   -1    0    0    0  501 -0.00000000000E+00  0.00000000000E+00  0.92364952633E+02  0.92364952633E+02  0.00000000000E+00 0.  1.
          1   -1    0    0  501    0  0.00000000000E+00 -0.00000000000E+00 -0.30977595928E+03  0.30977595928E+03  0.00000000000E+00 0. -1.
         23    2    1    2    0    0  0.14733887307E+02 -0.15168377695E+01 -0.27866495327E+03  0.29310268592E+03  0.89641731829E+02 0.  0.
         23    2    1    2    0    0 -0.14733887307E+02  0.15168377695E+01  0.61253946616E+02  0.10903822599E+03  0.88982585483E+02 0.  0.
          5    1    4    4  502    0  0.20457357977E+02 -0.25684142546E+02 -0.28461627468E-01  0.33170310276E+02  0.47000000000E+01 0. -1.
         -5    1    3    3    0  503 -0.24639644737E+02  0.30775844506E+02 -0.11915699119E+03  0.12559754475E+03  0.47000000000E+01 0.  1.
          5    1    3    3  503    0  0.39373532044E+02 -0.32292682275E+02 -0.15950796208E+03  0.16750514118E+03  0.47000000000E+01 0. -1.
         -5    1    4    4    0  502 -0.35191245284E+02  0.27200980316E+02  0.61282408244E+02  0.75867915715E+02  0.47000000000E+01 0.  1.
<mgrwt>
<rscale>  0 0.90694182E+02</rscale>
<asrwt>0</asrwt>
<pdfrwt beam="1">  1        1 0.47657840E-01 0.90857186E+02</pdfrwt>
<pdfrwt beam="2">  1       -1 0.14209993E-01 0.90857186E+02</pdfrwt>
<totfact> 0.28079448E+03</totfact>
</mgrwt>
</event>
<event>
 8    1  0.1893090E-003  0.1919185E+03  0.7546771E-02  0.1158367E+00
          1   -1    0    0  501    0  0.00000000000E+00  0.00000000000E+00  0.65348869700E+02  0.65348869700E+02  0.00000000000E+00 0. -1.
         -1   -1    0    0    0  501 -0.00000000000E+00 -0.00000000000E+00 -0.95756291451E+03  0.95756291451E+03  0.00000000000E+00 0.  1.
         23    2    1    2    0    0 -0.14924672795E+03  0.59081120641E+02 -0.77787047867E+03  0.79951270370E+03  0.91503645729E+02 0.  0.
         23    2    1    2    0    0  0.14924672795E+03 -0.59081120641E+02 -0.11434356614E+03  0.22339908050E+03  0.10520234518E+03 0.  0.
          5    1    4    4  502    0  0.63436537008E+02 -0.30136278514E+02  0.82951760778E+01  0.70875168123E+02  0.47000000000E+01 0. -1.
         -5    1    3    3    0  503 -0.10393462873E+03  0.23648495823E+02 -0.65657083982E+03  0.66518344546E+03  0.47000000000E+01 0.  1.
          5    1    3    3  503    0 -0.45312099225E+02  0.35432624818E+02 -0.12129963884E+03  0.13432925825E+03  0.47000000000E+01 0. -1.
         -5    1    4    4    0  502  0.85810190943E+02 -0.28944842127E+02 -0.12263874222E+03  0.15252391238E+03  0.47000000000E+01 0.  1.
<mgrwt>
<rscale>  0 0.19010453E+03</rscale>
<asrwt>0</asrwt>
<pdfrwt beam="1">  1        1 0.10053672E-01 0.19191847E+03</pdfrwt>
<pdfrwt beam="2">  1       -1 0.14731737E+00 0.19191847E+03</pdfrwt>
<totfact> 0.25400193E+02</totfact>
</mgrwt>
</event>
<event>
 8    1  0.1893090E-003  0.1040291E+03  0.7546771E-02  0.1272524E+00
         -1   -1    0    0    0  501 -0.00000000000E+00  0.00000000000E+00  0.67821402796E+02  0.67821402796E+02  0.00000000000E+00 0.  1.
          1   -1    0    0  501    0  0.00000000000E+00 -0.00000000000E+00 -0.21095012846E+03  0.21095012846E+03  0.00000000000E+00 0. -1.
         23    2    1    2    0    0 -0.56296766288E+02 -0.34180356601E+01 -0.14157727180E+03  0.17568772762E+03  0.87413070446E+02 0.  0.
         23    2    1    2    0    0  0.56296766288E+02  0.34180356601E+01 -0.15514538672E+01  0.10308380363E+03  0.86271980969E+02 0.  0.
          5    1    3    3  502    0 -0.77457062355E+02 -0.10599859270E+02 -0.12484754109E+03  0.14738029733E+03  0.47000000000E+01 0. -1.
         -5    1    3    3    0  502  0.21160296067E+02  0.71818236096E+01 -0.16729730701E+02  0.28307430285E+02  0.47000000000E+01 0.  1.
          5    1    4    4  503    0 -0.19145066093E+02 -0.15388400293E+02  0.21696641177E+01  0.25102467243E+02  0.47000000000E+01 0. -1.
         -5    1    4    4    0  503  0.75441832381E+02  0.18806435953E+02 -0.37211179849E+01  0.77981336391E+02  0.47000000000E+01 0.  1.
<mgrwt>
<rscale>  0 0.10378903E+03</rscale>
<asrwt>0</asrwt>
<pdfrwt beam="1">  1        1 0.32453865E-01 0.10402910E+03</pdfrwt>
<pdfrwt beam="2">  1       -1 0.10434062E-01 0.10402910E+03</pdfrwt>
<totfact> 0.72728982E+03</totfact>
</mgrwt>
</event>
<event>
 8    1  0.1893090E-003  0.1196037E+03  0.7546771E-02  0.1244722E+00
          1   -1    0    0  501    0  0.00000000000E+00  0.00000000000E+00  0.11019593149E+03  0.11019593149E+03  0.00000000000E+00 0. -1.
         -1   -1    0    0    0  501 -0.00000000000E+00 -0.00000000000E+00 -0.12996419580E+03  0.12996419580E+03  0.00000000000E+00 0.  1.
         23    2    1    2    0    0 -0.42809819330E+02  0.59062719955E+02  0.71753571204E+01  0.11981877012E+03  0.94783787657E+02 0.  0.
         23    2    1    2    0    0  0.42809819330E+02 -0.59062719955E+02 -0.26943621433E+02  0.12034135718E+03  0.91842245139E+02 0.  0.
          5    1    4    4  502    0  0.67266274857E+02 -0.48600183608E+02 -0.37695698080E+02  0.91267657106E+02  0.47000000000E+01 0. -1.
         -5    1    4    4    0  502 -0.24456455526E+02 -0.10462536348E+02  0.10752076647E+02  0.29073700073E+02  0.47000000000E+01 0.  1.
          5    1    3    3  503    0  0.14807390416E+02 -0.16555205984E+02  0.94912818690E+01  0.24607073934E+02  0.47000000000E+01 0. -1.
         -5    1    3    3    0  503 -0.57617209746E+02  0.75617925939E+02 -0.23159247486E+01  0.95211696181E+02  0.47000000000E+01 0.  1.
<mgrwt>
<rscale>  0 0.11902012E+03</rscale>
<asrwt>0</asrwt>
<pdfrwt beam="1">  1        1 0.16953220E-01 0.11960373E+03</pdfrwt>
<pdfrwt beam="2">  1       -1 0.19994492E-01 0.11960373E+03</pdfrwt>
<totfact> 0.60244881E+03</totfact>
</mgrwt>
</event>
<event>
 8    1  0.1893090E-003  0.9176750E+02  0.7546771E-02  0.1299050E+00
         -4   -1    0    0    0  501 -0.00000000000E+00  0.00000000000E+00  0.36144696532E+02  0.36144696532E+02  0.00000000000E+00 0.  1.
          4   -1    0    0  501    0  0.00000000000E+00 -0.00000000000E+00 -0.36789014471E+03  0.36789014471E+03  0.00000000000E+00 0. -1.
         23    2    1    2    0    0 -0.30531582365E+01 -0.10918125496E+02 -0.42317792558E+02  0.10040736830E+03  0.90345541128E+02 0.  0.
         23    2    1    2    0    0  0.30531582365E+01  0.10918125496E+02 -0.28942765562E+03  0.30362747295E+03  0.91064522455E+02 0.  0.
          5    1    4    4  502    0  0.69033322550E+01 -0.30190108638E+02 -0.22358299766E+03  0.22576657303E+03  0.47000000000E+01 0. -1.
         -5    1    3    3    0  503 -0.43342822487E+02 -0.19929971180E+02 -0.31864524289E+02  0.57560767199E+02  0.47000000000E+01 0.  1.
          5    1    3    3  503    0  0.40289664251E+02  0.90118456840E+01 -0.10453268269E+02  0.42846601097E+02  0.47000000000E+01 0. -1.
         -5    1    4    4    0  502 -0.38501740186E+01  0.41108234134E+02 -0.65844657963E+02  0.77860899917E+02  0.47000000000E+01 0.  1.
<mgrwt>
<rscale>  0 0.91588622E+02</rscale>
<asrwt>0</asrwt>
<pdfrwt beam="1">  1        4 0.56598485E-01 0.91767502E+02</pdfrwt>
<pdfrwt beam="2">  1       -4 0.55607224E-02 0.91767502E+02</pdfrwt>
<totfact> 0.91225006E+02</totfact>
</mgrwt>
</event>
<event>
 8    1  0.1893090E-003  0.9823889E+02  0.7546771E-02  0.1285452E+00
          1   -1    0    0  501    0  0.00000000000E+00  0.00000000000E+00  0.29764738040E+02  0.29764738040E+02  0.00000000000E+00 0. -1.
         -1   -1    0    0    0  501 -0.00000000000E+00 -0.00000000000E+00 -0.52400025611E+03  0.52400025611E+03  0.00000000000E+00 0.  1.
         23    2    1    2    0    0  0.29095332547E+02  0.10003589302E+02 -0.41966485122E+03  0.43042942242E+03  0.90577536727E+02 0.  0.
         23    2    1    2    0    0 -0.29095332547E+02 -0.10003589302E+02 -0.74570666853E+02  0.12333557173E+03  0.93296670492E+02 0.  0.
          5    1    3    3  502    0  0.55198407313E+02  0.13906494146E+02 -0.17019982553E+03  0.17952806288E+03  0.47000000000E+01 0. -1.
         -5    1    3    3    0  502 -0.26103074765E+02 -0.39029048436E+01 -0.24946502569E+03  0.25090135955E+03  0.47000000000E+01 0.  1.
          5    1    4    4  503    0 -0.31765691277E+02 -0.34393505316E+02 -0.84286304346E+02  0.96531049152E+02  0.47000000000E+01 0. -1.
         -5    1    4    4    0  503  0.26703587301E+01  0.24389916013E+02  0.97156374929E+01  0.26804522581E+02  0.47000000000E+01 0.  1.
<mgrwt>
<rscale>  0 0.97587806E+02</rscale>
<asrwt>0</asrwt>
<pdfrwt beam="1">  1        1 0.45791907E-02 0.98238887E+02</pdfrwt>
<pdfrwt beam="2">  1       -1 0.80615420E-01 0.98238887E+02</pdfrwt>
<totfact> 0.28570368E+03</totfact>
</mgrwt>
</event>
<event>
 8    1  0.1893090E-003  0.9705758E+02  0.7546771E-02  0.1287798E+00
          3   -1    0    0  501    0  0.00000000000E+00  0.00000000000E+00  0.44548881600E+03  0.44548881600E+03  0.00000000000E+00 0. -1.
         -3   -1    0    0    0  501 -0.00000000000E+00 -0.00000000000E+00 -0.74546871752E+02  0.74546871752E+02  0.00000000000E+00 0.  1.
         23    2    1    2    0    0  0.18357964787E+02  0.61404192345E+01 -0.34978135684E+02  0.10316803592E+03  0.95107591916E+02 0.  0.
         23    2    1    2    0    0 -0.18357964787E+02 -0.61404192345E+01  0.40592007994E+03  0.41686765184E+03  0.92912906706E+02 0.  0.
          5    1    4    4  502    0 -0.42604714242E+02 -0.59112139797E+01  0.37406372610E+03  0.37655791760E+03  0.47000000000E+01 0. -1.
         -5    1    4    4    0  502  0.24246749455E+02 -0.22920525482E+00  0.31856353837E+02  0.40309734233E+02  0.47000000000E+01 0.  1.
          5    1    3    3  503    0  0.30266904574E+02  0.35523789367E+02  0.99792162278E+01  0.47955186164E+02  0.47000000000E+01 0. -1.
         -5    1    3    3    0  503 -0.11908939787E+02 -0.29383370133E+02 -0.44957351912E+02  0.55212849756E+02  0.47000000000E+01 0.  1.
<mgrwt>
<rscale>  0 0.96515662E+02</rscale>
<asrwt>0</asrwt>
<pdfrwt beam="1">  1        3 0.68536739E-01 0.97057579E+02</pdfrwt>
<pdfrwt beam="2">  1       -3 0.11468750E-01 0.97057579E+02</pdfrwt>
<totfact> 0.27165010E+02</totfact>
</mgrwt>
</event>
<event>
 8    1  0.1893090E-003  0.9111269E+02  0.7546771E-02  0.1301878E+00
         -2   -1    0    0    0  501 -0.00000000000E+00  0.00000000000E+00  0.48406310062E+02  0.48406310062E+02  0.00000000000E+00 0.  1.
          2   -1    0    0  501    0  0.00000000000E+00 -0.00000000000E+00 -0.33538060005E+03  0.33538060005E+03  0.00000000000E+00 0. -1.
         23    2    1    2    0    0  0.12632574487E+02 -0.15368397107E+01 -0.28085834473E+03  0.29526755916E+03  0.90219609171E+02 0.  0.
         23    2    1    2    0    0 -0.12632574487E+02  0.15368397107E+01 -0.61159452615E+01  0.88519350945E+02  0.87386079503E+02 0.  0.
          5    1    4    4  502    0  0.36993871771E+02 -0.31149050462E+01  0.33372209115E+01  0.37569618383E+02  0.47000000000E+01 0. -1.
         -5    1    4    4    0  502 -0.49626446258E+02  0.46517447568E+01 -0.94531661730E+01  0.50949732562E+02  0.47000000000E+01 0.  1.
          5    1    3    3  503    0  0.37206739585E+02  0.27658026792E+02 -0.99400041728E+02  0.10978053658E+03  0.47000000000E+01 0. -1.
         -5    1    3    3    0  503 -0.24574165098E+02 -0.29194866502E+02 -0.18145830300E+03  0.18548702258E+03  0.47000000000E+01 0.  1.
<mgrwt>
<rscale>  0 0.90403226E+02</rscale>
<asrwt>0</asrwt>
<pdfrwt beam="1">  1        2 0.51597018E-01 0.91112687E+02</pdfrwt>
<pdfrwt beam="2">  1       -2 0.74471243E-02 0.91112687E+02</pdfrwt>
<totfact> 0.94131870E+03</totfact>
</mgrwt>
</event>
<event>
 8    1  0.1893090E-003  0.1055471E+03  0.7546771E-02  0.1272494E+00
         -2   -1    0    0    0  501 -0.00000000000E+00  0.00000000000E+00  0.43494391325E+02  0.43494391325E+02  0.00000000000E+00 0.  1.
          2   -1    0    0  501    0  0.00000000000E+00 -0.00000000000E+00 -0.25845540255E+03  0.25845540255E+03  0.00000000000E+00 0. -1.
         23    2    1    2    0    0  0.35881381387E+02  0.17697084564E+02 -0.70358059051E+02  0.12684815389E+03  0.97670555134E+02 0.  0.
         23    2    1    2    0    0 -0.35881381387E+02 -0.17697084564E+02 -0.14460295217E+03  0.17510163998E+03  0.90276853151E+02 0.  0.
          5    1    4    4  502    0 -0.25553419207E+02  0.34322021464E+02 -0.84321180884E+02  0.94673808079E+02  0.47000000000E+01 0. -1.
         -5    1    3    3    0  503  0.56703313610E+02 -0.21210963295E+02 -0.34852536845E+02  0.70013999049E+02  0.47000000000E+01 0.  1.
          5    1    3    3  503    0 -0.20821932222E+02  0.38908047859E+02 -0.35505522207E+02  0.56834154844E+02  0.47000000000E+01 0. -1.
         -5    1    4    4    0  502 -0.10327962180E+02 -0.52019106028E+02 -0.60281771289E+02  0.80427831902E+02  0.47000000000E+01 0.  1.
<mgrwt>
<rscale>  0 0.10380388E+03</rscale>
<asrwt>0</asrwt>
<pdfrwt beam="1">  1        2 0.39762370E-01 0.10554713E+03</pdfrwt>
<pdfrwt beam="2">  1       -2 0.66914448E-02 0.10554713E+03</pdfrwt>
<totfact> 0.14741257E+04</totfact>
</mgrwt>
</event>
<event>
 8    1  0.1893090E-003  0.1047176E+03  0.7546771E-02  0.1271036E+00
         -1   -1    0    0    0  501 -0.00000000000E+00  0.00000000000E+00  0.67995983441E+02  0.67995983441E+02  0.00000000000E+00 0.  1.
          1   -1    0    0  501    0  0.00000000000E+00 -0.00000000000E+00 -0.18171304816E+03  0.18171304816E+03  0.00000000000E+00 0. -1.
         23    2    1    2    0    0  0.35859200035E+02  0.35572840314E+02 -0.99686675777E+02  0.14405565206E+03  0.90902631255E+02 0.  0.
         23    2    1    2    0    0 -0.35859200035E+02 -0.35572840314E+02 -0.14030388937E+02  0.10565337953E+03  0.91730450766E+02 0.  0.
          5    1    3    3  502    0 -0.32683614705E+00  0.59557680824E+02 -0.65028371721E+02  0.88306303827E+02  0.47000000000E+01 0. -1.
         -5    1    4    4    0  503 -0.26935180991E+02 -0.66023959244E+02 -0.23023782901E+01  0.71498658135E+02  0.47000000000E+01 0.  1.
          5    1    4    4  503    0 -0.89240190434E+01  0.30451118930E+02 -0.11728010647E+02  0.34154721397E+02  0.47000000000E+01 0. -1.
         -5    1    3    3    0  502  0.36186036182E+02 -0.23984840510E+02 -0.34658304056E+02  0.55749348237E+02  0.47000000000E+01 0.  1.
<mgrwt>
<rscale>  0 0.10453608E+03</rscale>
<asrwt>0</asrwt>
<pdfrwt beam="1">  1        1 0.27955853E-01 0.10471764E+03</pdfrwt>
<pdfrwt beam="2">  1       -1 0.10460921E-01 0.10471764E+03</pdfrwt>
<totfact> 0.87129673E+03</totfact>
</mgrwt>
</event>
<event>
 8    1  0.1893090E-003  0.9850825E+02  0.7546771E-02  0.1283805E+00
          1   -1    0    0  501    0  0.00000000000E+00  0.00000000000E+00  0.23787004753E+03  0.23787004753E+03  0.00000000000E+00 0. -1.
         -1   -1    0    0    0  501 -0.00000000000E+00 -0.00000000000E+00 -0.46400952160E+02  0.46400952160E+02  0.00000000000E+00 0.  1.
         23    2    1    2    0    0  0.35454098780E+02 -0.13085969938E+02  0.14600898740E+03  0.17577908272E+03  0.90285246818E+02 0.  0.
         23    2    1    2    0    0 -0.35454098780E+02  0.13085969938E+02  0.45460107972E+02  0.10849191697E+03  0.90970538640E+02 0.  0.
          5    1    3    3  502    0 -0.19310154006E+02  0.19850414899E+02  0.20222402597E+02  0.34611509447E+02  0.47000000000E+01 0. -1.
         -5    1    3    3    0  502  0.54764252787E+02 -0.32936384837E+02  0.12578658480E+03  0.14116757328E+03  0.47000000000E+01 0.  1.
          5    1    4    4  503    0 -0.13030500562E+02 -0.34572668199E+02  0.41051199843E+02  0.55428822285E+02  0.47000000000E+01 0. -1.
         -5    1    4    4    0  503 -0.22423598218E+02  0.47658638137E+02  0.44089081287E+01  0.53063094680E+02  0.47000000000E+01 0.  1.
<mgrwt>
<rscale>  0 0.98349739E+02</rscale>
<asrwt>0</asrwt>
<pdfrwt beam="1">  1        1 0.36595391E-01 0.98508247E+02</pdfrwt>
<pdfrwt beam="2">  1       -1 0.71386082E-02 0.98508247E+02</pdfrwt>
<totfact> 0.11051917E+04</totfact>
</mgrwt>
</event>
<event>
 8    1  0.1893090E-003  0.9400405E+02  0.7546771E-02  0.1302546E+00
          2   -1    0    0  501    0  0.00000000000E+00  0.00000000000E+00  0.48339465824E+02  0.48339465824E+02  0.00000000000E+00 0. -1.
         -2   -1    0    0    0  501 -0.00000000000E+00 -0.00000000000E+00 -0.30554409849E+03  0.30554409849E+03  0.00000000000E+00 0.  1.
         23    2    1    2    0    0  0.18359231101E+02 -0.14217737393E+02 -0.24684680444E+03  0.25931060007E+03  0.75956810266E+02 0.  0.
         23    2    1    2    0    0 -0.18359231101E+02  0.14217737393E+02 -0.10357828228E+02  0.94572964242E+02  0.91090919068E+02 0.  0.
          5    1    3    3  502    0 -0.43975240669E+01 -0.37705585073E+02 -0.18773071489E+03  0.19158799721E+03  0.47000000000E+01 0. -1.
         -5    1    4    4    0  503 -0.27074670887E+02 -0.30786631370E+02 -0.22386805673E+02  0.46947987635E+02  0.47000000000E+01 0.  1.
          5    1    4    4  503    0  0.87154397861E+01  0.45004368763E+02  0.12028977445E+02  0.47624976606E+02  0.47000000000E+01 0. -1.
         -5    1    3    3    0  502  0.22756755168E+02  0.23487847680E+02 -0.59116089545E+02  0.67722602856E+02  0.47000000000E+01 0.  1.
<mgrwt>
<rscale>  0 0.90126375E+02</rscale>
<asrwt>0</asrwt>
<pdfrwt beam="1">  1        2 0.74368410E-02 0.94004048E+02</pdfrwt>
<pdfrwt beam="2">  1       -2 0.47006783E-01 0.94004048E+02</pdfrwt>
<totfact> 0.37693445E+03</totfact>
</mgrwt>
</event>
<event>
 8    1  0.1893090E-003  0.1611666E+03  0.7546771E-02  0.1187595E+00
         -4   -1    0    0    0  501 -0.00000000000E+00  0.00000000000E+00  0.42839842684E+03  0.42839842684E+03  0.00000000000E+00 0.  1.
          4   -1    0    0  501    0  0.00000000000E+00 -0.00000000000E+00 -0.60519527933E+02  0.60519527933E+02  0.00000000000E+00 0. -1.
         23    2    1    2    0    0  0.13183736054E+03  0.14681452991E+02  0.19636984778E+03  0.25356710526E+03  0.90213774208E+02 0.  0.
         23    2    1    2    0    0 -0.13183736054E+03 -0.14681452991E+02  0.17150905113E+03  0.23535084951E+03  0.91531595908E+02 0.  0.
          5    1    3    3  502    0  0.10937040796E+02  0.35668894931E+02  0.47765483400E+02  0.60790791502E+02  0.47000000000E+01 0. -1.
         -5    1    3    3    0  502  0.12090031975E+03 -0.20987441940E+02  0.14860436438E+03  0.19277631376E+03  0.47000000000E+01 0.  1.
          5    1    4    4  503    0 -0.76049869216E+02  0.34711429476E+02  0.68775861487E+02  0.10835439570E+03  0.47000000000E+01 0. -1.
         -5    1    4    4    0  503 -0.55787491328E+02 -0.49392882466E+02  0.10273318964E+03  0.12699645381E+03  0.47000000000E+01 0.  1.
<mgrwt>
<rscale>  0 0.16098007E+03</rscale>
<asrwt>0</asrwt>
<pdfrwt beam="1">  1        4 0.93106969E-02 0.16116658E+03</pdfrwt>
<pdfrwt beam="2">  1       -4 0.65907448E-01 0.16116658E+03</pdfrwt>
<totfact> 0.31932615E+02</totfact>
</mgrwt>
</event>
<event>
 8    1  0.1893090E-003  0.3676656E+03  0.7546771E-02  0.1055606E+00
         -2   -1    0    0    0  501 -0.00000000000E+00  0.00000000000E+00  0.10685643881E+03  0.10685643881E+03  0.00000000000E+00 0.  1.
          2   -1    0    0  501    0  0.00000000000E+00 -0.00000000000E+00 -0.16026116271E+04  0.16026116271E+04  0.00000000000E+00 0. -1.
         23    2    1    2    0    0 -0.35397192162E+03  0.37718618252E+02 -0.35510933767E+03  0.51103118281E+03  0.91276572243E+02 0.  0.
         23    2    1    2    0    0  0.35397192162E+03 -0.37718618252E+02 -0.11406458506E+04  0.11984368831E+04  0.91973859237E+02 0.  0.
          5    1    3    3  502    0 -0.15686047998E+03  0.62204474233E+01 -0.21856133475E+03  0.26913760643E+03  0.47000000000E+01 0. -1.
         -5    1    3    3    0  502 -0.19711144164E+03  0.31498170829E+02 -0.13654800292E+03  0.24189357638E+03  0.47000000000E+01 0.  1.
          5    1    4    4  503    0  0.28069022340E+03 -0.27818115885E+01 -0.78740636883E+03  0.83595790544E+03  0.47000000000E+01 0. -1.
         -5    1    4    4    0  503  0.73281698217E+02 -0.34936806664E+02 -0.35323948176E+03  0.36247897764E+03  0.47000000000E+01 0.  1.
<mgrwt>
<rscale>  0 0.36762216E+03</rscale>
<asrwt>0</asrwt>
<pdfrwt beam="1">  1        2 0.24655563E+00 0.36766562E+03</pdfrwt>
<pdfrwt beam="2">  1       -2 0.16439453E-01 0.36766562E+03</pdfrwt>
<totfact> 0.35001079E+02</totfact>
</mgrwt>
</event>
<event>
 8    1  0.1893090E-003  0.9545686E+02  0.7546771E-02  0.1293210E+00
          1   -1    0    0  501    0  0.00000000000E+00  0.00000000000E+00  0.93730803305E+03  0.93730803305E+03  0.00000000000E+00 0. -1.
         -1   -1    0    0    0  501 -0.00000000000E+00 -0.00000000000E+00 -0.10464766622E+02  0.10464766622E+02  0.00000000000E+00 0.  1.
         23    2    1    2    0    0 -0.20323483728E+02  0.49038804684E+01  0.28638515626E+03  0.30024009483E+03  0.87695865263E+02 0.  0.
         23    2    1    2    0    0  0.20323483728E+02 -0.49038804684E+01  0.64045811017E+03  0.64753270484E+03  0.93139255539E+02 0.  0.
          5    1    3    3  502    0  0.14656365898E+02  0.34268573535E+02  0.74474224320E+02  0.83412494756E+02  0.47000000000E+01 0. -1.
         -5    1    4    4    0  503 -0.32523512792E+02 -0.31528962423E+01  0.12280207414E+03  0.12716194027E+03  0.47000000000E+01 0.  1.
          5    1    4    4  503    0  0.52846996520E+02 -0.17509842261E+01  0.51765603603E+03  0.52037076457E+03  0.47000000000E+01 0. -1.
         -5    1    3    3    0  502 -0.34979849626E+02 -0.29364693067E+02  0.21191093194E+03  0.21682760008E+03  0.47000000000E+01 0.  1.
<mgrwt>
<rscale>  0 0.94102474E+02</rscale>
<asrwt>0</asrwt>
<pdfrwt beam="1">  1        1 0.14420117E+00 0.95456864E+02</pdfrwt>
<pdfrwt beam="2">  1       -1 0.16099648E-02 0.95456864E+02</pdfrwt>
<totfact> 0.15646526E+04</totfact>
</mgrwt>
</event>
<event>
 8    1  0.1893090E-003  0.9410017E+02  0.7546771E-02  0.1300835E+00
          1   -1    0    0  501    0  0.00000000000E+00  0.00000000000E+00  0.96988044738E+03  0.96988044738E+03  0.00000000000E+00 0. -1.
         -1   -1    0    0    0  501 -0.00000000000E+00 -0.00000000000E+00 -0.98703131465E+01  0.98703131465E+01  0.00000000000E+00 0.  1.
         23    2    1    2    0    0 -0.17114832964E+02 -0.15079074083E+02  0.29265589213E+03  0.30741228544E+03  0.91293735039E+02 0.  0.
         23    2    1    2    0    0  0.17114832964E+02  0.15079074083E+02  0.66735424211E+03  0.67233847509E+03  0.78466837887E+02 0.  0.
          5    1    3    3  502    0 -0.23706233201E+02  0.17950020007E+02  0.25460933114E+03  0.25638289767E+03  0.47000000000E+01 0. -1.
         -5    1    4    4    0  503 -0.19233110743E+02  0.34459003994E+02  0.36434999153E+03  0.36651103917E+03  0.47000000000E+01 0.  1.
          5    1    4    4  503    0  0.36347943708E+02 -0.19379929911E+02  0.30300425057E+03  0.30582743592E+03  0.47000000000E+01 0. -1.
         -5    1    3    3    0  502  0.65914002364E+01 -0.33029094089E+02  0.38046560988E+02  0.51029387773E+02  0.47000000000E+01 0.  1.
<mgrwt>
<rscale>  0 0.90838143E+02</rscale>
<asrwt>0</asrwt>
<pdfrwt beam="1">  1        1 0.14921230E+00 0.94100170E+02</pdfrwt>
<pdfrwt beam="2">  1       -1 0.15185105E-02 0.94100170E+02</pdfrwt>
<totfact> 0.16070693E+04</totfact>
</mgrwt>
</event>
<event>
 8    1  0.1893090E-003  0.1176073E+03  0.7546771E-02  0.1247587E+00
          2   -1    0    0  501    0  0.00000000000E+00  0.00000000000E+00  0.71733794718E+02  0.71733794718E+02  0.00000000000E+00 0. -1.
         -2   -1    0    0    0  501 -0.00000000000E+00 -0.00000000000E+00 -0.20088954056E+03  0.20088954056E+03  0.00000000000E+00 0.  1.
         23    2    1    2    0    0  0.68350191207E+02 -0.37785935804E+01 -0.34536517560E+02  0.12257346278E+03  0.95631879231E+02 0.  0.
         23    2    1    2    0    0 -0.68350191207E+02  0.37785935804E+01 -0.94619228279E+02  0.15004987250E+03  0.94213265885E+02 0.  0.
          5    1    3    3  502    0 -0.14853135305E+02  0.19881024249E+02  0.74106900244E+01  0.26322596380E+02  0.47000000000E+01 0. -1.
         -5    1    3    3    0  502  0.83203326512E+02 -0.23659617829E+02 -0.41947207584E+02  0.96250866399E+02  0.47000000000E+01 0.  1.
          5    1    4    4  503    0 -0.88891208066E+02  0.14230581918E+02 -0.60339632187E+02  0.10847634556E+03  0.47000000000E+01 0. -1.
         -5    1    4    4    0  503  0.20541016860E+02 -0.10451988338E+02 -0.34279596092E+02  0.41573526938E+02  0.47000000000E+01 0.  1.
<mgrwt>
<rscale>  0 0.11731861E+03</rscale>
<asrwt>0</asrwt>
<pdfrwt beam="1">  1        2 0.11035969E-01 0.11760732E+03</pdfrwt>
<pdfrwt beam="2">  1       -2 0.30906083E-01 0.11760732E+03</pdfrwt>
<totfact> 0.51617192E+03</totfact>
</mgrwt>
</event>
<event>
 8    1  0.1893090E-003  0.9472033E+02  0.7546771E-02  0.1291965E+00
          1   -1    0    0  501    0  0.00000000000E+00  0.00000000000E+00  0.40868791163E+02  0.40868791163E+02  0.00000000000E+00 0. -1.
         -1   -1    0    0    0  501 -0.00000000000E+00 -0.00000000000E+00 -0.34551642707E+03  0.34551642707E+03  0.00000000000E+00 0.  1.
         23    2    1    2    0    0  0.21853408750E+02 -0.88190284158E+01 -0.35508695482E+02  0.10115734006E+03  0.91741992880E+02 0.  0.
         23    2    1    2    0    0 -0.21853408750E+02  0.88190284158E+01 -0.26913894043E+03  0.28522787817E+03  0.91453958339E+02 0.  0.
          5    1    4    4  502    0  0.27371579410E+01  0.39676920390E+02 -0.58635682718E+02  0.71006924543E+02  0.47000000000E+01 0. -1.
         -5    1    3    3    0  503 -0.34101925007E+02 -0.16222949171E+02 -0.13098863036E+02  0.40246684110E+02  0.47000000000E+01 0.  1.
          5    1    3    3  503    0  0.55955333757E+02  0.74039207548E+01 -0.22409832446E+02  0.60910655954E+02  0.47000000000E+01 0. -1.
         -5    1    4    4    0  502 -0.24590566691E+02 -0.30857891975E+02 -0.21050325771E+03  0.21422095363E+03  0.47000000000E+01 0.  1.
<mgrwt>
<rscale>  0 0.94650510E+02</rscale>
<asrwt>0</asrwt>
<pdfrwt beam="1">  1        1 0.62875060E-02 0.94720325E+02</pdfrwt>
<pdfrwt beam="2">  1       -1 0.53156376E-01 0.94720325E+02</pdfrwt>
<totfact> 0.41434749E+03</totfact>
</mgrwt>
</event>
<event>
 8    1  0.1893090E-003  0.9911829E+02  0.7546771E-02  0.1282840E+00
         -2   -1    0    0    0  501 -0.00000000000E+00  0.00000000000E+00  0.66858529065E+02  0.66858529065E+02  0.00000000000E+00 0.  1.
          2   -1    0    0  501    0  0.00000000000E+00 -0.00000000000E+00 -0.21173993389E+03  0.21173993389E+03  0.00000000000E+00 0. -1.
         23    2    1    2    0    0 -0.34774420916E+02  0.13046758996E+02  0.60428196699E+01  0.98036681571E+02  0.90527327331E+02 0.  0.
         23    2    1    2    0    0  0.34774420916E+02 -0.13046758996E+02 -0.15092422449E+03  0.18056178138E+03  0.91896447628E+02 0.  0.
          5    1    3    3  502    0  0.10113043577E+02 -0.31220101981E+02  0.10189771273E+02  0.34682702557E+02  0.47000000000E+01 0. -1.
         -5    1    3    3    0  502 -0.44887464493E+02  0.44266860977E+02 -0.41469516031E+01  0.63353979014E+02  0.47000000000E+01 0.  1.
          5    1    4    4  503    0 -0.26112020878E+02 -0.21919632456E+02 -0.76482181785E+02  0.83868480682E+02  0.47000000000E+01 0. -1.
         -5    1    4    4    0  503  0.60886441794E+02  0.88728734598E+01 -0.74442042710E+02  0.96693300701E+02  0.47000000000E+01 0.  1.
<mgrwt>
<rscale>  0 0.98799752E+02</rscale>
<asrwt>0</asrwt>
<pdfrwt beam="1">  1        2 0.32575374E-01 0.99118290E+02</pdfrwt>
<pdfrwt beam="2">  1       -2 0.10285928E-01 0.99118290E+02</pdfrwt>
<totfact> 0.93472964E+03</totfact>
</mgrwt>
</event>
<event>
 8    1  0.1893090E-003  0.1019302E+03  0.7546771E-02  0.1277231E+00
         -2   -1    0    0    0  501 -0.00000000000E+00  0.00000000000E+00  0.20582837588E+02  0.20582837588E+02  0.00000000000E+00 0.  1.
          2   -1    0    0  501    0  0.00000000000E+00 -0.00000000000E+00 -0.63385610257E+03  0.63385610257E+03  0.00000000000E+00 0. -1.
         23    2    1    2    0    0  0.31107395056E+02 -0.26579220515E+02 -0.15176958141E+03  0.18181284969E+03  0.91366194409E+02 0.  0.
         23    2    1    2    0    0 -0.31107395056E+02  0.26579220515E+02 -0.46150368356E+03  0.47262609046E+03  0.93357626635E+02 0.  0.
          5    1    4    4  502    0  0.17227345764E+02  0.45882810677E+02 -0.24577070257E+03  0.25065382901E+03  0.47000000000E+01 0. -1.
         -5    1    3    3    0  503  0.59990646181E+02 -0.31091795950E+02 -0.84353969953E+02  0.10818160496E+03  0.47000000000E+01 0.  1.
          5    1    3    3  503    0 -0.28883251125E+02  0.45125754354E+01 -0.67415611461E+02  0.73631244735E+02  0.47000000000E+01 0. -1.
         -5    1    4    4    0  502 -0.48334740820E+02 -0.19303590162E+02 -0.21573298100E+03  0.22197226145E+03  0.47000000000E+01 0.  1.
<mgrwt>
<rscale>  0 0.10147196E+03</rscale>
<asrwt>0</asrwt>
<pdfrwt beam="1">  1        2 0.97516342E-01 0.10193023E+03</pdfrwt>
<pdfrwt beam="2">  1       -2 0.31665898E-02 0.10193023E+03</pdfrwt>
<totfact> 0.17074473E+04</totfact>
</mgrwt>
</event>
<event>
 8    1  0.1893090E-003  0.1411665E+03  0.7546771E-02  0.1211991E+00
         -1   -1    0    0    0  501 -0.00000000000E+00  0.00000000000E+00  0.30736341102E+03  0.30736341102E+03  0.00000000000E+00 0.  1.
          1   -1    0    0  501    0  0.00000000000E+00 -0.00000000000E+00 -0.72200549154E+02  0.72200549154E+02  0.00000000000E+00 0. -1.
         23    2    1    2    0    0  0.47578356148E+02 -0.95164647339E+02  0.55968363414E+02  0.15185661106E+03  0.92779106170E+02 0.  0.
         23    2    1    2    0    0 -0.47578356148E+02  0.95164647339E+02  0.17919449845E+03  0.22770734911E+03  0.91760331784E+02 0.  0.
          5    1    3    3  502    0  0.20747666380E+02  0.15360170942E+02  0.33514888915E+01  0.26452277584E+02  0.47000000000E+01 0. -1.
         -5    1    3    3    0  502  0.26830689768E+02 -0.11052481828E+03  0.52616874522E+02  0.12540433347E+03  0.47000000000E+01 0.  1.
          5    1    4    4  503    0 -0.16110568650E+02  0.91155595607E+02  0.76681776201E+02  0.12029579309E+03  0.47000000000E+01 0. -1.
         -5    1    4    4    0  503 -0.31467787498E+02  0.40090517320E+01  0.10251272225E+03  0.10741155603E+03  0.47000000000E+01 0.  1.
<mgrwt>
<rscale>  0 0.14099931E+03</rscale>
<asrwt>0</asrwt>
<pdfrwt beam="1">  1        1 0.11107777E-01 0.14116647E+03</pdfrwt>
<pdfrwt beam="2">  1       -1 0.47286678E-01 0.14116647E+03</pdfrwt>
<totfact> 0.24606748E+03</totfact>
</mgrwt>
</event>
<event>
 8    1  0.1893090E-003  0.9118315E+02  0.7546771E-02  0.1300869E+00
         -3   -1    0    0    0  501 -0.00000000000E+00  0.00000000000E+00  0.95332695382E+02  0.95332695382E+02  0.00000000000E+00 0.  1.
          3   -1    0    0  501    0  0.00000000000E+00 -0.00000000000E+00 -0.87394691128E+02  0.87394691128E+02  0.00000000000E+00 0. -1.
         23    2    1    2    0    0 -0.18919617745E+02 -0.22642615154E+02 -0.81339839004E+01  0.91545223525E+02  0.86277032283E+02 0.  0.
         23    2    1    2    0    0  0.18919617745E+02  0.22642615154E+02  0.16071988155E+02  0.91182162984E+02  0.84765783702E+02 0.  0.
          5    1    4    4  502    0  0.73741494228E+01 -0.32139154532E+02  0.26096225037E+01  0.33409631296E+02  0.47000000000E+01 0. -1.
         -5    1    4    4    0  502  0.11545468322E+02  0.54781769686E+02  0.13462365651E+02  0.57772531688E+02  0.47000000000E+01 0.  1.
          5    1    3    3  503    0  0.21148713209E+02 -0.35602889362E+02 -0.21785281609E+02  0.47026825282E+02  0.47000000000E+01 0. -1.
         -5    1    3    3    0  503 -0.40068330954E+02  0.12960274208E+02  0.13651297709E+02  0.44518398243E+02  0.47000000000E+01 0.  1.
<mgrwt>
<rscale>  0 0.90823878E+02</rscale>
<asrwt>0</asrwt>
<pdfrwt beam="1">  1        3 0.13445337E-01 0.91183147E+02</pdfrwt>
<pdfrwt beam="2">  1       -3 0.14666569E-01 0.91183147E+02</pdfrwt>
<totfact> 0.36352240E+03</totfact>
</mgrwt>
</event>
<event>
 8    1  0.1893090E-003  0.1451038E+03  0.7546771E-02  0.1208128E+00
          1   -1    0    0  501    0  0.00000000000E+00  0.00000000000E+00  0.19454988192E+03  0.19454988192E+03  0.00000000000E+00 0. -1.
         -1   -1    0    0    0  501 -0.00000000000E+00 -0.00000000000E+00 -0.10545708297E+03  0.10545708297E+03  0.00000000000E+00 0.  1.
         23    2    1    2    0    0 -0.54115206203E+02 -0.88826603980E+02  0.57001200128E+02  0.15589817545E+03  0.10117550680E+03 0.  0.
         23    2    1    2    0    0  0.54115206203E+02  0.88826603980E+02  0.32091598825E+02  0.14410878944E+03  0.94439670488E+02 0.  0.
          5    1    3    3  502    0 -0.37577702511E+02 -0.40309198562E+02  0.81815095102E+02  0.98755835277E+02  0.47000000000E+01 0. -1.
         -5    1    4    4    0  503  0.12385385108E+02 -0.19904382438E+02  0.64220664789E+01  0.24757123064E+02  0.47000000000E+01 0.  1.
          5    1    4    4  503    0  0.41729821095E+02  0.10873098642E+03  0.25669532346E+02  0.11935166638E+03  0.47000000000E+01 0. -1.
         -5    1    3    3    0  502 -0.16537503692E+02 -0.48517405418E+02 -0.24813894974E+02  0.57142340175E+02  0.47000000000E+01 0.  1.
<mgrwt>
<rscale>  0 0.14393634E+03</rscale>
<asrwt>0</asrwt>
<pdfrwt beam="1">  1        1 0.29930751E-01 0.14510377E+03</pdfrwt>
<pdfrwt beam="2">  1       -1 0.16224167E-01 0.14510377E+03</pdfrwt>
<totfact> 0.41488312E+03</totfact>
</mgrwt>
</event>
<event>
 8    1  0.1893090E-003  0.9345688E+02  0.7546771E-02  0.1296932E+00
          2   -1    0    0  501    0  0.00000000000E+00  0.00000000000E+00  0.38300237230E+03  0.38300237230E+03  0.00000000000E+00 0. -1.
         -2   -1    0    0    0  501 -0.00000000000E+00 -0.00000000000E+00 -0.29512014964E+02  0.29512014964E+02  0.00000000000E+00 0.  1.
         23    2    1    2    0    0  0.12022170270E+02  0.10161567956E+02  0.28431158918E+03  0.29927791134E+03  0.92121650188E+02 0.  0.
         23    2    1    2    0    0 -0.12022170270E+02 -0.10161567956E+02  0.69178768151E+02  0.11323647592E+03  0.88255353798E+02 0.  0.
          5    1    3    3  502    0 -0.37641602237E+02  0.16420667184E+02  0.99375425869E+02  0.10762942811E+03  0.47000000000E+01 0.  1.
         -5    1    3    3    0  502  0.49663772506E+02 -0.62590992280E+01  0.18493616331E+03  0.19164848323E+03  0.47000000000E+01 0. -1.
          5    1    4    4  503    0  0.35773244272E+02 -0.18859182796E+02  0.34492154811E+02  0.53359090369E+02  0.47000000000E+01 0. -1.
         -5    1    4    4    0  503 -0.47795414542E+02  0.86976148399E+01  0.34686613340E+02  0.59877385549E+02  0.47000000000E+01 0.  1.
<mgrwt>
<rscale>  0 0.92489800E+02</rscale>
<asrwt>0</asrwt>
<pdfrwt beam="1">  1        2 0.58923438E-01 0.93456880E+02</pdfrwt>
<pdfrwt beam="2">  1       -2 0.45403103E-02 0.93456880E+02</pdfrwt>
<totfact> 0.17233802E+04</totfact>
</mgrwt>
</event>
<event>
 8    1  0.1893090E-003  0.1002233E+03  0.7546771E-02  0.1282160E+00
          1   -1    0    0  501    0  0.00000000000E+00  0.00000000000E+00  0.72539093874E+03  0.72539093874E+03  0.00000000000E+00 0. -1.
         -1   -1    0    0    0  501 -0.00000000000E+00 -0.00000000000E+00 -0.13425640443E+02  0.13425640443E+02  0.00000000000E+00 0.  1.
         23    2    1    2    0    0  0.31792104431E+02  0.16005285037E+02  0.32194341589E+03  0.33718283589E+03  0.93689885941E+02 0.  0.
         23    2    1    2    0    0 -0.31792104431E+02 -0.16005285037E+02  0.39002188241E+03  0.40163374329E+03  0.89026332874E+02 0.  0.
          5    1    3    3  502    0 -0.16019310029E+02  0.23319698440E+02  0.24152629303E+03  0.24322308043E+03  0.47000000000E+01 0. -1.
         -5    1    4    4    0  503 -0.18382972912E+02 -0.47674969162E+02  0.31264587746E+03  0.31682861467E+03  0.47000000000E+01 0.  1.
          5    1    4    4  503    0 -0.13409131519E+02  0.31669684125E+02  0.77376004943E+02  0.84805128628E+02  0.47000000000E+01 0. -1.
         -5    1    3    3    0  502  0.47811414460E+02 -0.73144134032E+01  0.80417122861E+02  0.93959755456E+02  0.47000000000E+01 0.  1.
<mgrwt>
<rscale>  0 0.99118828E+02</rscale>
<asrwt>0</asrwt>
<pdfrwt beam="1">  1        1 0.11159858E+00 0.10022326E+03</pdfrwt>
<pdfrwt beam="2">  1       -1 0.20654837E-02 0.10022326E+03</pdfrwt>
<totfact> 0.16212433E+04</totfact>
</mgrwt>
</event>
<event>
 8    1  0.1893090E-003  0.1244953E+03  0.7546771E-02  0.1243991E+00
          1   -1    0    0  501    0  0.00000000000E+00  0.00000000000E+00  0.98386307915E+02  0.98386307915E+02  0.00000000000E+00 0. -1.
         -1   -1    0    0    0  501 -0.00000000000E+00 -0.00000000000E+00 -0.21413428787E+03  0.21413428787E+03  0.00000000000E+00 0.  1.
         23    2    1    2    0    0  0.30318330960E+02 -0.39407155200E+02  0.40231260764E+02  0.11294954199E+03  0.93096292188E+02 0.  0.
         23    2    1    2    0    0 -0.30318330960E+02  0.39407155200E+02 -0.15597924071E+03  0.19957105379E+03  0.11413569514E+03 0.  0.
          5    1    3    3  502    0  0.61901986802E+02 -0.37612302435E+02  0.20715588205E+02  0.75483553567E+02  0.47000000000E+01 0. -1.
         -5    1    3    3    0  502 -0.31583655842E+02 -0.17948527655E+01  0.19515672560E+02  0.37465988420E+02  0.47000000000E+01 0.  1.
          5    1    4    4  503    0  0.42885962104E+01  0.64186024165E+02 -0.39897739884E+02  0.75842978604E+02  0.47000000000E+01 0. -1.
         -5    1    4    4    0  503 -0.34606927170E+02 -0.24778868965E+02 -0.11608150083E+03  0.12372807519E+03  0.47000000000E+01 0.  1.
<mgrwt>
<rscale>  0 0.11945951E+03</rscale>
<asrwt>0</asrwt>
<pdfrwt beam="1">  1        1 0.15136355E-01 0.12449531E+03</pdfrwt>
<pdfrwt beam="2">  1       -1 0.32943736E-01 0.12449531E+03</pdfrwt>
<totfact> 0.30726695E+03</totfact>
</mgrwt>
</event>
<event>
 8    1  0.1893090E-003  0.9846907E+02  0.7546771E-02  0.1291009E+00
          2   -1    0    0  501    0  0.00000000000E+00  0.00000000000E+00  0.58858862126E+02  0.58858862126E+02  0.00000000000E+00 0. -1.
         -2   -1    0    0    0  501 -0.00000000000E+00 -0.00000000000E+00 -0.14471905748E+03  0.14471905748E+03  0.00000000000E+00 0.  1.
         23    2    1    2    0    0 -0.84884406361E+01 -0.28837251394E+02 -0.53691965387E+02  0.11215607793E+03  0.93768427405E+02 0.  0.
         23    2    1    2    0    0  0.84884406361E+01  0.28837251394E+02 -0.32168229970E+02  0.91421841675E+02  0.80121891038E+02 0.  0.
          5    1    3    3  502    0 -0.40341959448E+02  0.45944793442E+01  0.40471473462E+00  0.40875869734E+02  0.47000000000E+01 0. -1.
         -5    1    4    4    0  503 -0.11082671290E+02 -0.21906079108E+02 -0.26676033474E+02  0.36556841586E+02  0.47000000000E+01 0.  1.
          5    1    4    4  503    0  0.19571111926E+02  0.50743330502E+02 -0.54921964953E+01  0.54865000089E+02  0.47000000000E+01 0. -1.
         -5    1    3    3    0  502  0.31853518811E+02 -0.33431730738E+02 -0.54096680121E+02  0.71280208199E+02  0.47000000000E+01 0.  1.
<mgrwt>
<rscale>  0 0.95074094E+02</rscale>
<asrwt>0</asrwt>
<pdfrwt beam="1">  1        2 0.90552096E-02 0.98469075E+02</pdfrwt>
<pdfrwt beam="2">  1       -2 0.22264470E-01 0.98469075E+02</pdfrwt>
<totfact> 0.11486597E+04</totfact>
</mgrwt>
</event>
<event>
 8    1  0.1893090E-003  0.9205731E+02  0.7546771E-02  0.1298686E+00
         -1   -1    0    0    0  501 -0.00000000000E+00  0.00000000000E+00  0.85472955080E+02  0.85472955080E+02  0.00000000000E+00 0.  1.
          1   -1    0    0  501    0  0.00000000000E+00 -0.00000000000E+00 -0.50246324858E+03  0.50246324858E+03  0.00000000000E+00 0. -1.
         23    2    1    2    0    0 -0.46943724404E+01  0.10009348563E+02  0.55036440248E+02  0.10725464263E+03  0.91391052182E+02 0.  0.
         23    2    1    2    0    0  0.46943724404E+01 -0.10009348563E+02 -0.47202673375E+03  0.48068156103E+03  0.90129360101E+02 0.  0.
          5    1    4    4  502    0  0.31598944519E+01 -0.48084882734E+02 -0.33096828214E+03  0.33449100835E+03  0.47000000000E+01 0. -1.
         -5    1    3    3    0  503 -0.23106300293E+01  0.33769789681E+02  0.70551390869E+02  0.78392132640E+02  0.47000000000E+01 0.  1.
          5    1    3    3  503    0 -0.23837424111E+01 -0.23760441119E+02 -0.15514950622E+02  0.28862509988E+02  0.47000000000E+01 0. -1.
         -5    1    4    4    0  502  0.15344779886E+01  0.38075534171E+02 -0.14105845161E+03  0.14619055269E+03  0.47000000000E+01 0.  1.
<mgrwt>
<rscale>  0 0.91742593E+02</rscale>
<asrwt>0</asrwt>
<pdfrwt beam="1">  1        1 0.77302038E-01 0.92057312E+02</pdfrwt>
<pdfrwt beam="2">  1       -1 0.13149685E-01 0.92057312E+02</pdfrwt>
<totfact> 0.17328837E+03</totfact>
</mgrwt>
</event>
<event>
 8    1  0.1893090E-003  0.9670991E+02  0.7546771E-02  0.1290359E+00
         -3   -1    0    0    0  501 -0.00000000000E+00  0.00000000000E+00  0.83586046467E+02  0.83586046467E+02  0.00000000000E+00 0.  1.
          3   -1    0    0  501    0  0.00000000000E+00 -0.00000000000E+00 -0.11910389441E+03  0.11910389441E+03  0.00000000000E+00 0. -1.
         23    2    1    2    0    0 -0.17286287027E+01  0.34200466213E+02  0.15559891034E+02  0.97953643665E+02  0.90444159855E+02 0.  0.
         23    2    1    2    0    0  0.17286287027E+01 -0.34200466213E+02 -0.51077738979E+02  0.10473629721E+03  0.84782642613E+02 0.  0.
          5    1    4    4  502    0  0.24196251970E+02  0.20412640939E+02 -0.21192361603E+02  0.38384120542E+02  0.47000000000E+01 0. -1.
         -5    1    3    3    0  503  0.22309420299E+02 -0.15357878632E+02  0.30129355710E+02  0.40785325126E+02  0.47000000000E+01 0.  1.
          5    1    3    3  503    0 -0.24038049001E+02  0.49558344845E+02 -0.14569464676E+02  0.57168318539E+02  0.47000000000E+01 0. -1.
         -5    1    4    4    0  502 -0.22467623267E+02 -0.54613107152E+02 -0.29885377375E+02  0.66352176671E+02  0.47000000000E+01 0.  1.
<mgrwt>
<rscale>  0 0.95363882E+02</rscale>
<asrwt>0</asrwt>
<pdfrwt beam="1">  1        3 0.18323676E-01 0.96709907E+02</pdfrwt>
<pdfrwt beam="2">  1       -3 0.12859392E-01 0.96709907E+02</pdfrwt>
<totfact> 0.27096271E+03</totfact>
</mgrwt>
</event>
<event>
 8    1  0.1893090E-003  0.1426389E+03  0.7546771E-02  0.1210304E+00
          1   -1    0    0  501    0  0.00000000000E+00  0.00000000000E+00  0.63038536868E+03  0.63038536868E+03  0.00000000000E+00 0. -1.
         -1   -1    0    0    0  501 -0.00000000000E+00 -0.00000000000E+00 -0.64967227287E+02  0.64967227287E+02  0.00000000000E+00 0.  1.
         23    2    1    2    0    0 -0.45789685863E+02 -0.97206524874E+02  0.34121349844E+02  0.14524158560E+03  0.91569906967E+02 0.  0.
         23    2    1    2    0    0  0.45789685863E+02  0.97206524874E+02  0.53129679155E+03  0.55011101037E+03  0.93808524195E+02 0.  0.
          5    1    4    4  502    0  0.18254691301E+02  0.10390097066E+03  0.47842849055E+03  0.48994342125E+03  0.47000000000E+01 0. -1.
         -5    1    4    4    0  502  0.27534994563E+02 -0.66944457837E+01  0.52868301001E+02  0.60167589121E+02  0.47000000000E+01 0.  1.
          5    1    3    3  503    0 -0.10381272390E+02 -0.10048988964E+03  0.40255654267E+02  0.10885125832E+03  0.47000000000E+01 0. -1.
         -5    1    3    3    0  503 -0.35408413473E+02  0.32833647664E+01 -0.61343044232E+01  0.36390327281E+02  0.47000000000E+01 0.  1.
<mgrwt>
<rscale>  0 0.14227189E+03</rscale>
<asrwt>0</asrwt>
<pdfrwt beam="1">  1        1 0.96982360E-01 0.14263886E+03</pdfrwt>
<pdfrwt beam="2">  1       -1 0.99949585E-02 0.14263886E+03</pdfrwt>
<totfact> 0.19739599E+03</totfact>
</mgrwt>
</event>
<event>
 8    1  0.1893090E-003  0.1117238E+03  0.7546771E-02  0.1258708E+00
         -2   -1    0    0    0  501 -0.00000000000E+00  0.00000000000E+00  0.13305505661E+03  0.13305505661E+03  0.00000000000E+00 0. -1.
          2   -1    0    0  501    0  0.00000000000E+00 -0.00000000000E+00 -0.10405582154E+03  0.10405582154E+03  0.00000000000E+00 0.  1.
         23    2    1    2    0    0  0.24126382975E+02  0.62004119205E+02  0.55584350217E+02  0.12226756918E+03  0.86215690746E+02 0.  0.
         23    2    1    2    0    0 -0.24126382975E+02 -0.62004119205E+02 -0.26585115144E+02  0.11484330897E+03  0.89753128720E+02 0.  0.
          5    1    3    3  502    0  0.31332917087E+02  0.98331742320E+01  0.60670409385E+02  0.69147896451E+02  0.47000000000E+01 0. -1.
         -5    1    3    3    0  502 -0.72065341118E+01  0.52170944973E+02 -0.50860591679E+01  0.53119672731E+02  0.47000000000E+01 0.  1.
          5    1    4    4  503    0  0.21838796628E+02 -0.14135867163E+01  0.16036461495E+02  0.27535238566E+02  0.47000000000E+01 0. -1.
         -5    1    4    4    0  503 -0.45965179603E+02 -0.60590532488E+02 -0.42621576640E+02  0.87308070408E+02  0.47000000000E+01 0.  1.
<mgrwt>
<rscale>  0 0.11101171E+03</rscale>
<asrwt>0</asrwt>
<pdfrwt beam="1">  1        2 0.16008588E-01 0.11172384E+03</pdfrwt>
<pdfrwt beam="2">  1       -2 0.20470009E-01 0.11172384E+03</pdfrwt>
<totfact> 0.67930632E+03</totfact>
</mgrwt>
</event>
<event>
 8    1  0.1893090E-003  0.4112314E+03  0.7546771E-02  0.1039993E+00
          1   -1    0    0  501    0  0.00000000000E+00  0.00000000000E+00  0.54708509559E+03  0.54708509559E+03  0.00000000000E+00 0. -1.
         -1   -1    0    0    0  501 -0.00000000000E+00 -0.00000000000E+00 -0.55272858257E+03  0.55272858257E+03  0.00000000000E+00 0.  1.
         23    2    1    2    0    0  0.30674638681E+03 -0.25869195028E+03  0.36248719185E+03  0.54787937583E+03  0.88090721716E+02 0.  0.
         23    2    1    2    0    0 -0.30674638681E+03  0.25869195028E+03 -0.36813067883E+03  0.55193430233E+03  0.89980033536E+02 0.  0.
          5    1    3    3  502    0  0.22718988797E+03 -0.17116917851E+03  0.20403496615E+03  0.35009497323E+03  0.47000000000E+01 0. -1.
         -5    1    3    3    0  502  0.79556498837E+02 -0.87522771767E+02  0.15845222570E+03  0.19778440261E+03  0.47000000000E+01 0.  1.
          5    1    4    4  503    0 -0.47172676754E+02  0.66594082452E+02 -0.38144736487E+02  0.90206120476E+02  0.47000000000E+01 0. -1.
         -5    1    4    4    0  503 -0.25957371005E+03  0.19209786783E+03 -0.32998594234E+03  0.46172818185E+03  0.47000000000E+01 0.  1.
<mgrwt>
<rscale>  0 0.41112906E+03</rscale>
<asrwt>0</asrwt>
<pdfrwt beam="1">  1        1 0.84166938E-01 0.41123142E+03</pdfrwt>
<pdfrwt beam="2">  1       -1 0.85035166E-01 0.41123142E+03</pdfrwt>
<totfact> 0.56675594E+01</totfact>
</mgrwt>
</event>
<event>
 8    1  0.1893090E-003  0.1131072E+03  0.7546771E-02  0.1263548E+00
         -1   -1    0    0    0  501 -0.00000000000E+00  0.00000000000E+00  0.42389704731E+03  0.42389704731E+03  0.00000000000E+00 0.  1.
          1   -1    0    0  501    0  0.00000000000E+00 -0.00000000000E+00 -0.25939528631E+02  0.25939528631E+02  0.00000000000E+00 0. -1.
         23    2    1    2    0    0 -0.36124667296E+02  0.24822077769E+01  0.20592252298E+03  0.22696740375E+03  0.88311742999E+02 0.  0.
         23    2    1    2    0    0  0.36124667296E+02 -0.24822077769E+01  0.19203499570E+03  0.22286917219E+03  0.10715444647E+03 0.  0.
          5    1    3    3  502    0  0.13651460212E+02 -0.31717627017E+02  0.72848318104E+02  0.80754799734E+02  0.47000000000E+01 0. -1.
         -5    1    4    4    0  503 -0.23579653331E+02  0.12957698937E+02  0.13820115536E+03  0.14087423950E+03  0.47000000000E+01 0.  1.
          5    1    4    4  503    0  0.59704320627E+02 -0.15439906714E+02  0.53833840339E+02  0.81994932688E+02  0.47000000000E+01 0. -1.
         -5    1    3    3    0  502 -0.49776127508E+02  0.34199834794E+02  0.13307420488E+03  0.14621260402E+03  0.47000000000E+01 0.  1.
<mgrwt>
<rscale>  0 0.10840718E+03</rscale>
<asrwt>0</asrwt>
<pdfrwt beam="1">  1        1 0.39906970E-02 0.11310715E+03</pdfrwt>
<pdfrwt beam="2">  1       -1 0.65214925E-01 0.11310715E+03</pdfrwt>
<totfact> 0.52961725E+03</totfact>
</mgrwt>
</event>
<event>
 8    1  0.1893090E-003  0.1848736E+03  0.7546771E-02  0.1163503E+00
         -1   -1    0    0    0  501 -0.00000000000E+00  0.00000000000E+00  0.19306671451E+03  0.19306671451E+03  0.00000000000E+00 0.  1.
          1   -1    0    0  501    0  0.00000000000E+00 -0.00000000000E+00 -0.17867354094E+03  0.17867354094E+03  0.00000000000E+00 0. -1.
         23    2    1    2    0    0 -0.92451609228E+02 -0.12939857855E+03  0.31352748685E+02  0.18751333121E+03  0.94270686606E+02 0.  0.
         23    2    1    2    0    0  0.92451609228E+02  0.12939857855E+03 -0.16959575114E+02  0.18422692423E+03  0.91436536707E+02 0.  0.
          5    1    3    3  502    0 -0.50365697415E+02 -0.12368785284E+03  0.47515218638E+02  0.14182797474E+03  0.47000000000E+01 0. -1.
         -5    1    4    4    0  503  0.51861097170E+02  0.12803634291E+03  0.40092007133E+01  0.13827885665E+03  0.47000000000E+01 0.  1.
          5    1    4    4  503    0  0.40590512058E+02  0.13622356370E+01 -0.20968775827E+02  0.45948067584E+02  0.47000000000E+01 0. -1.
         -5    1    3    3    0  502 -0.42085911813E+02 -0.57107257096E+01 -0.16162469954E+02  0.45685356475E+02  0.47000000000E+01 0.  1.
<mgrwt>
<rscale>  0 0.18451533E+03</rscale>
<asrwt>0</asrwt>
<pdfrwt beam="1">  1        1 0.27488237E-01 0.18487362E+03</pdfrwt>
<pdfrwt beam="2">  1       -1 0.29702572E-01 0.18487362E+03</pdfrwt>
<totfact> 0.17397373E+03</totfact>
</mgrwt>
</event>
<event>
 8    1  0.1893090E-003  0.9680386E+02  0.7546771E-02  0.1288584E+00
         -2   -1    0    0    0  501 -0.00000000000E+00  0.00000000000E+00  0.70956580220E+02  0.70956580220E+02  0.00000000000E+00 0.  1.
          2   -1    0    0  501    0  0.00000000000E+00 -0.00000000000E+00 -0.21571269720E+03  0.21571269720E+03  0.00000000000E+00 0. -1.
         23    2    1    2    0    0  0.25670793923E-01  0.23852928277E+02 -0.16402926954E+03  0.19046413907E+03  0.93819103378E+02 0.  0.
         23    2    1    2    0    0 -0.25670793923E-01 -0.23852928277E+02  0.19273152558E+02  0.96205138354E+02  0.91186684279E+02 0.  0.
          5    1    3    3  502    0 -0.45384125767E+02  0.22633096403E+02 -0.80306235265E+02  0.95095516966E+02  0.47000000000E+01 0. -1.
         -5    1    4    4    0  503 -0.74127401339E+01  0.31613728308E+02  0.22779852545E+02  0.39942311097E+02  0.47000000000E+01 0. -1.
          5    1    4    4  503    0  0.73870693399E+01 -0.55466656585E+02 -0.35066999862E+01  0.56262827257E+02  0.47000000000E+01 0.  1.
         -5    1    3    3    0  502  0.45409796561E+02  0.12198318735E+01 -0.83723034273E+02  0.95368622101E+02  0.47000000000E+01 0.  1.
<mgrwt>
<rscale>  0 0.96160212E+02</rscale>
<asrwt>0</asrwt>
<pdfrwt beam="1">  1        2 0.33186569E-01 0.96803858E+02</pdfrwt>
<pdfrwt beam="2">  1       -2 0.10916397E-01 0.96803858E+02</pdfrwt>
<totfact> 0.83327173E+03</totfact>
</mgrwt>
</event>
<event>
 8    1  0.1893090E-003  0.1757277E+03  0.7546771E-02  0.1172304E+00
         -2   -1    0    0    0  501 -0.00000000000E+00  0.00000000000E+00  0.38841892080E+02  0.38841892080E+02  0.00000000000E+00 0.  1.
          2   -1    0    0  501    0  0.00000000000E+00 -0.00000000000E+00 -0.79853781800E+03  0.79853781800E+03  0.00000000000E+00 0. -1.
         23    2    1    2    0    0 -0.76783623810E+02 -0.12748043497E+03 -0.42545055133E+03  0.46031336941E+03  0.93451807080E+02 0.  0.
         23    2    1    2    0    0  0.76783623810E+02  0.12748043497E+03 -0.33424537459E+03  0.37706634067E+03  0.91170547041E+02 0.  0.
          5    1    4    4  502    0  0.13300570255E+02  0.10087649157E+03 -0.23572780823E+03  0.25679303201E+03  0.47000000000E+01 0. -1.
         -5    1    3    3    0  503 -0.83872922488E+02 -0.10714293031E+03 -0.41328843370E+03  0.43513640858E+03  0.47000000000E+01 0.  1.
          5    1    3    3  503    0  0.70892986783E+01 -0.20337504654E+02 -0.12162117628E+02  0.25176960828E+02  0.47000000000E+01 0. -1.
         -5    1    4    4    0  502  0.63483053555E+02  0.26603943397E+02 -0.98517566368E+02  0.12027330866E+03  0.47000000000E+01 0.  1.
<mgrwt>
<rscale>  0 0.17542631E+03</rscale>
<asrwt>0</asrwt>
<pdfrwt beam="1">  1        2 0.12285196E+00 0.17572771E+03</pdfrwt>
<pdfrwt beam="2">  1       -2 0.59756764E-02 0.17572771E+03</pdfrwt>
<totfact> 0.51982944E+03</totfact>
</mgrwt>
</event>
<event>
 8    1  0.1893090E-003  0.1162635E+03  0.7546771E-02  0.1249833E+00
          2   -1    0    0  501    0  0.00000000000E+00  0.00000000000E+00  0.67000019159E+02  0.67000019159E+02  0.00000000000E+00 0. -1.
         -2   -1    0    0    0  501 -0.00000000000E+00 -0.00000000000E+00 -0.22443099849E+03  0.22443099849E+03  0.00000000000E+00 0.  1.
         23    2    1    2    0    0 -0.70282493817E+02 -0.10616510100E+02 -0.30929804551E+02  0.12030736625E+03  0.92004729996E+02 0.  0.
         23    2    1    2    0    0  0.70282493817E+02  0.10616510100E+02 -0.12650117478E+03  0.17112365140E+03  0.90710625744E+02 0.  0.
          5    1    3    3  502    0 -0.90101970406E+02 -0.16260171263E+02 -0.36130112836E+02  0.98540516003E+02  0.47000000000E+01 0. -1.
         -5    1    3    3    0  502  0.19819476589E+02  0.56436611634E+01  0.52003082848E+01  0.21766850251E+02  0.47000000000E+01 0.  1.
          5    1    4    4  503    0 -0.20498024747E+02  0.12124685687E+02 -0.24580692310E+02  0.34546743059E+02  0.47000000000E+01 0. -1.
         -5    1    4    4    0  503  0.90780518563E+02 -0.15081755871E+01 -0.10192048247E+03  0.13657690834E+03  0.47000000000E+01 0.  1.
<mgrwt>
<rscale>  0 0.11600735E+03</rscale>
<asrwt>0</asrwt>
<pdfrwt beam="1">  1        2 0.10307695E-01 0.11626353E+03</pdfrwt>
<pdfrwt beam="2">  1       -2 0.34527846E-01 0.11626353E+03</pdfrwt>
<totfact> 0.45801051E+03</totfact>
</mgrwt>
</event>
<event>
 8    1  0.1893090E-003  0.9509217E+02  0.7546771E-02  0.1291062E+00
         -2   -1    0    0    0  501 -0.00000000000E+00  0.00000000000E+00  0.97724879657E+02  0.97724879657E+02  0.00000000000E+00 0.  1.
          2   -1    0    0  501    0  0.00000000000E+00 -0.00000000000E+00 -0.24819460495E+03  0.24819460495E+03  0.00000000000E+00 0. -1.
         23    2    1    2    0    0  0.21698057765E+02  0.74539209370E+01  0.61787174659E+02  0.11340271092E+03  0.92283006255E+02 0.  0.
         23    2    1    2    0    0 -0.21698057765E+02 -0.74539209370E+01 -0.21225689995E+03  0.23251677369E+03  0.92112386899E+02 0.  0.
          5    1    4    4  502    0 -0.23408102419E+01 -0.22772879833E+02 -0.20504622293E+03  0.20637375557E+03  0.47000000000E+01 0. -1.
         -5    1    3    3    0  503  0.32857998551E+02  0.43588598649E+02  0.48110718436E+02  0.72913271970E+02  0.47000000000E+01 0.  1.
          5    1    3    3  503    0 -0.11159940786E+02 -0.36134677712E+02  0.13676456223E+02  0.40489438950E+02  0.47000000000E+01 0. -1.
         -5    1    4    4    0  502 -0.19357247523E+02  0.15318958896E+02 -0.72106770220E+01  0.26143018121E+02  0.47000000000E+01 0.  1.
<mgrwt>
<rscale>  0 0.95050746E+02</rscale>
<asrwt>0</asrwt>
<pdfrwt beam="1">  1        2 0.38183785E-01 0.95092165E+02</pdfrwt>
<pdfrwt beam="2">  1       -2 0.15034597E-01 0.95092165E+02</pdfrwt>
<totfact> 0.43074885E+03</totfact>
</mgrwt>
</event>
<event>
 8    1  0.1893090E-003  0.9543276E+02  0.7546771E-02  0.1290985E+00
          2   -1    0    0  501    0  0.00000000000E+00  0.00000000000E+00  0.26094220421E+03  0.26094220421E+03  0.00000000000E+00 0. -1.
         -2   -1    0    0    0  501 -0.00000000000E+00 -0.00000000000E+00 -0.39365063090E+02  0.39365063090E+02  0.00000000000E+00 0.  1.
         23    2    1    2    0    0 -0.89709615404E+01  0.22301921640E+02  0.56743032283E+02  0.10984022405E+03  0.90924415021E+02 0.  0.
         23    2    1    2    0    0  0.89709615404E+01 -0.22301921640E+02  0.16483410883E+03  0.19046704325E+03  0.92355602259E+02 0.  0.
          5    1    3    3  502    0  0.13430366885E+02  0.52022342099E+02  0.45821028124E+02  0.70769735413E+02  0.47000000000E+01 0. -1.
         -5    1    3    3    0  502 -0.22401328425E+02 -0.29720420459E+02  0.10922004159E+02  0.39070488637E+02  0.47000000000E+01 0.  1.
          5    1    4    4  503    0 -0.24814528221E+01  0.35089787241E+02  0.47831988388E+02  0.59560388597E+02  0.47000000000E+01 0. -1.
         -5    1    4    4    0  503  0.11452414362E+02 -0.57391708880E+02  0.11700212045E+03  0.13090665465E+03  0.47000000000E+01 0.  1.
<mgrwt>
<rscale>  0 0.95084771E+02</rscale>
<asrwt>0</asrwt>
<pdfrwt beam="1">  1        2 0.40144953E-01 0.95432757E+02</pdfrwt>
<pdfrwt beam="2">  1       -2 0.60561637E-02 0.95432757E+02</pdfrwt>
<totfact> 0.16801394E+04</totfact>
</mgrwt>
</event>
<event>
 8    1  0.1893090E-003  0.1188270E+03  0.7546771E-02  0.1246158E+00
          1   -1    0    0  501    0  0.00000000000E+00  0.00000000000E+00  0.45718062053E+03  0.45718062053E+03  0.00000000000E+00 0. -1.
         -1   -1    0    0    0  501 -0.00000000000E+00 -0.00000000000E+00 -0.48471152764E+02  0.48471152764E+02  0.00000000000E+00 0.  1.
         23    2    1    2    0    0 -0.25606432997E+02 -0.71942802991E+02  0.50580162978E+02  0.12914412950E+03  0.91040633703E+02 0.  0.
         23    2    1    2    0    0  0.25606432997E+02  0.71942802991E+02  0.35812930479E+03  0.37650764379E+03  0.87578253993E+02 0.  0.
          5    1    3    3  502    0 -0.34951510274E+02 -0.38603549437E+02  0.71378713173E+02  0.88480804663E+02  0.47000000000E+01 0. -1.
         -5    1    3    3    0  502  0.93450772765E+01 -0.33339253553E+02 -0.20798550195E+02  0.40663324839E+02  0.47000000000E+01 0.  1.
          5    1    4    4  503    0 -0.27592613920E+02  0.44562392124E+02  0.12189885246E+03  0.13277266046E+03  0.47000000000E+01 0. -1.
         -5    1    4    4    0  503  0.53199046918E+02  0.27380410866E+02  0.23623045232E+03  0.24373498333E+03  0.47000000000E+01 0.  1.
<mgrwt>
<rscale>  0 0.11816360E+03</rscale>
<asrwt>0</asrwt>
<pdfrwt beam="1">  1        1 0.70335477E-01 0.11882699E+03</pdfrwt>
<pdfrwt beam="2">  1       -1 0.74571007E-02 0.11882699E+03</pdfrwt>
<totfact> 0.46717618E+03</totfact>
</mgrwt>
</event>
<event>
 8    1  0.1893090E-003  0.9917411E+02  0.7546771E-02  0.1283239E+00
          3   -1    0    0  501    0  0.00000000000E+00  0.00000000000E+00  0.16769762510E+03  0.16769762510E+03  0.00000000000E+00 0. -1.
         -3   -1    0    0    0  501 -0.00000000000E+00 -0.00000000000E+00 -0.57968065566E+02  0.57968065566E+02  0.00000000000E+00 0.  1.
         23    2    1    2    0    0 -0.23010936244E+02  0.25113056778E+02  0.67200631357E+02  0.11979745104E+03  0.93141481696E+02 0.  0.
         23    2    1    2    0    0  0.23010936244E+02 -0.25113056778E+02  0.42528928175E+02  0.10586823963E+03  0.90770070082E+02 0.  0.
          5    1    3    3  502    0  0.23544228397E+02 -0.20406608927E+02  0.34708968326E+02  0.46878170410E+02  0.47000000000E+01 0. -1.
         -5    1    4    4    0  503 -0.19996875945E+02 -0.16237785416E+02  0.54194559283E+02  0.60188711389E+02  0.47000000000E+01 0.  1.
          5    1    4    4  503    0  0.43007812188E+02 -0.88752713615E+01 -0.11665631108E+02  0.45679528239E+02  0.47000000000E+01 0. -1.
         -5    1    3    3    0  502 -0.46555164641E+02  0.45519665704E+02  0.32491663031E+02  0.72919280627E+02  0.47000000000E+01 0.  1.
<mgrwt>
<rscale>  0 0.98613440E+02</rscale>
<asrwt>0</asrwt>
<pdfrwt beam="1">  1        3 0.25799634E-01 0.99174112E+02</pdfrwt>
<pdfrwt beam="2">  1       -3 0.89181640E-02 0.99174112E+02</pdfrwt>
<totfact> 0.27231634E+03</totfact>
</mgrwt>
</event>
<event>
 8    1  0.1893090E-003  0.1592535E+03  0.7546771E-02  0.1189969E+00
         -1   -1    0    0    0  501 -0.00000000000E+00  0.00000000000E+00  0.16816171208E+03  0.16816171208E+03  0.00000000000E+00 0.  1.
          1   -1    0    0  501    0  0.00000000000E+00 -0.00000000000E+00 -0.31314696087E+03  0.31314696087E+03  0.00000000000E+00 0. -1.
         23    2    1    2    0    0  0.11589218872E+03  0.57650546320E+02  0.10168958850E+03  0.18769301200E+03  0.90184862624E+02 0.  0.
         23    2    1    2    0    0 -0.11589218872E+03 -0.57650546320E+02 -0.24667483729E+03  0.29361566095E+03  0.92774436702E+02 0.  0.
          5    1    3    3  502    0  0.77697960827E+02 -0.49815299314E+01  0.26091181469E+02  0.82247361706E+02  0.47000000000E+01 0. -1.
         -5    1    3    3    0  502  0.38194227890E+02  0.62632076251E+02  0.75598407031E+02  0.10544565029E+03  0.47000000000E+01 0.  1.
          5    1    4    4  503    0 -0.93096838465E+02 -0.48363192137E+02 -0.24716747619E+03  0.26855143078E+03  0.47000000000E+01 0. -1.
         -5    1    4    4    0  503 -0.22795350253E+02 -0.92873541828E+01  0.49263890378E+00  0.25064230169E+02  0.47000000000E+01 0.  1.
<mgrwt>
<rscale>  0 0.15887856E+03</rscale>
<asrwt>0</asrwt>
<pdfrwt beam="1">  1        1 0.48176456E-01 0.15925351E+03</pdfrwt>
<pdfrwt beam="2">  1       -1 0.25871033E-01 0.15925351E+03</pdfrwt>
<totfact> 0.10845008E+03</totfact>
</mgrwt>
</event>
<event>
 8    1  0.1893090E-003  0.9736503E+02  0.7546771E-02  0.1286857E+00
         -1   -1    0    0    0  501 -0.00000000000E+00  0.00000000000E+00  0.15642059460E+03  0.15642059460E+03  0.00000000000E+00 0.  1.
          1   -1    0    0  501    0  0.00000000000E+00 -0.00000000000E+00 -0.14043947896E+03  0.14043947896E+03  0.00000000000E+00 0. -1.
         23    2    1    2    0    0 -0.28760110748E+02 -0.11544995606E+02  0.12059485090E+03  0.15394757110E+03  0.90533450671E+02 0.  0.
         23    2    1    2    0    0  0.28760110748E+02  0.11544995606E+02 -0.10461373526E+03  0.14291250246E+03  0.92301239760E+02 0.  0.
          5    1    3    3  502    0 -0.16449074325E+02  0.21800150356E+02 -0.43903744992E+00  0.27714641538E+02  0.47000000000E+01 0. -1.
         -5    1    4    4    0  503 -0.34894784166E+01 -0.37339821120E+02 -0.50162168871E+02  0.62807419042E+02  0.47000000000E+01 0.  1.
          5    1    4    4  503    0  0.32249589165E+02  0.48884816726E+02 -0.54451566389E+02  0.80105083421E+02  0.47000000000E+01 0. -1.
         -5    1    3    3    0  502 -0.12311036424E+02 -0.33345145962E+02  0.12103388835E+03  0.12623292956E+03  0.47000000000E+01 0.  1.
<mgrwt>
<rscale>  0 0.96943759E+02</rscale>
<asrwt>0</asrwt>
<pdfrwt beam="1">  1        1 0.21606074E-01 0.97365034E+02</pdfrwt>
<pdfrwt beam="2">  1       -1 0.24064707E-01 0.97365034E+02</pdfrwt>
<totfact> 0.32446127E+03</totfact>
</mgrwt>
</event>
<event>
 8    1  0.1893090E-003  0.9933536E+02  0.7546771E-02  0.1282914E+00
         -1   -1    0    0    0  501 -0.00000000000E+00  0.00000000000E+00  0.25357060352E+03  0.25357060352E+03  0.00000000000E+00 0.  1.
          1   -1    0    0  501    0  0.00000000000E+00 -0.00000000000E+00 -0.53006833830E+02  0.53006833830E+02  0.00000000000E+00 0. -1.
         23    2    1    2    0    0 -0.39932914055E+02 -0.15542082528E+02  0.18092062372E+03  0.20531852834E+03  0.87104718804E+02 0.  0.
         23    2    1    2    0    0  0.39932914055E+02  0.15542082528E+02  0.19643145963E+02  0.10125890901E+03  0.89617629491E+02 0.  0.
          5    1    4    4  502    0  0.34399491158E+02 -0.30890891186E+02 -0.73678498493E+01  0.47052602070E+02  0.47000000000E+01 0. -1.
         -5    1    4    4    0  502  0.55334228970E+01  0.46432973713E+02  0.27010995813E+02  0.54206306936E+02  0.47000000000E+01 0.  1.
          5    1    3    3  503    0 -0.62616382908E+01 -0.48221532516E+02  0.10718070049E+03  0.11778929013E+03  0.47000000000E+01 0. -1.
         -5    1    3    3    0  503 -0.33671275764E+02  0.32679449989E+02  0.73739923233E+02  0.87529238209E+02  0.47000000000E+01 0.  1.
<mgrwt>
<rscale>  0 0.98765212E+02</rscale>
<asrwt>0</asrwt>
<pdfrwt beam="1">  1        1 0.81548976E-02 0.99335359E+02</pdfrwt>
<pdfrwt beam="2">  1       -1 0.39010862E-01 0.99335359E+02</pdfrwt>
<totfact> 0.50957234E+03</totfact>
</mgrwt>
</event>
<event>
 8    1  0.1893090E-003  0.9359495E+02  0.7546771E-02  0.1296408E+00
         -1   -1    0    0    0  501 -0.00000000000E+00  0.00000000000E+00  0.12169028368E+03  0.12169028368E+03  0.00000000000E+00 0.  1.
          1   -1    0    0  501    0  0.00000000000E+00 -0.00000000000E+00 -0.75774314665E+02  0.75774314665E+02  0.00000000000E+00 0. -1.
         23    2    1    2    0    0  0.73982994874E+01  0.14419972399E+02  0.51326014255E+02  0.10371342543E+03  0.88653507747E+02 0.  0.
         23    2    1    2    0    0 -0.73982994874E+01 -0.14419972399E+02 -0.54100452448E+01  0.93751172911E+02  0.92181035974E+02 0.  0.
          5    1    3    3  502    0 -0.94242211090E+01 -0.34943234231E+02  0.12686323065E+02  0.38637784032E+02  0.47000000000E+01 0. -1.
         -5    1    4    4    0  503 -0.31144498514E+02  0.14025318975E+02  0.27396666143E+02  0.44038127524E+02  0.47000000000E+01 0.  1.
          5    1    4    4  503    0  0.23746199027E+02 -0.28445291375E+02 -0.32806711388E+02  0.49713045387E+02  0.47000000000E+01 0. -1.
         -5    1    3    3    0  502  0.16822520596E+02  0.49363206630E+02  0.38639691190E+02  0.65075641398E+02  0.47000000000E+01 0.  1.
<mgrwt>
<rscale>  0 0.92714559E+02</rscale>
<asrwt>0</asrwt>
<pdfrwt beam="1">  1        1 0.11657587E-01 0.93594946E+02</pdfrwt>
<pdfrwt beam="2">  1       -1 0.18721582E-01 0.93594946E+02</pdfrwt>
<totfact> 0.10623429E+04</totfact>
</mgrwt>
</event>
<event>
 8    1  0.1893090E-003  0.1331043E+03  0.7546771E-02  0.1232984E+00
          2   -1    0    0  501    0  0.00000000000E+00  0.00000000000E+00  0.18509156039E+03  0.18509156039E+03  0.00000000000E+00 0. -1.
         -2   -1    0    0    0  501 -0.00000000000E+00 -0.00000000000E+00 -0.80728857807E+02  0.80728857807E+02  0.00000000000E+00 0.  1.
         23    2    1    2    0    0 -0.43692561702E+02  0.37573880523E+02  0.68620494846E+02  0.12800075998E+03  0.91403423330E+02 0.  0.
         23    2    1    2    0    0  0.43692561702E+02 -0.37573880523E+02  0.35742207737E+02  0.13781965822E+03  0.11998298351E+03 0.  0.
          5    1    4    4  502    0  0.41051533854E+01  0.42496087177E+02  0.50146281663E+01  0.43243568370E+02  0.47000000000E+01 0. -1.
         -5    1    4    4    0  502  0.39587408317E+02 -0.80069967701E+02  0.30727579571E+02  0.94576089849E+02  0.47000000000E+01 0.  1.
          5    1    3    3  503    0 -0.30724826250E+02 -0.21108193452E+02  0.12424937694E+01  0.37592613233E+02  0.47000000000E+01 0. -1.
         -5    1    3    3    0  503 -0.12967735452E+02  0.58682073976E+02  0.67378001077E+02  0.90408146745E+02  0.47000000000E+01 0.  1.
<mgrwt>
<rscale>  0 0.12634356E+03</rscale>
<asrwt>0</asrwt>
<pdfrwt beam="1">  1        2 0.28475625E-01 0.13310429E+03</pdfrwt>
<pdfrwt beam="2">  1       -2 0.12419824E-01 0.13310429E+03</pdfrwt>
<totfact> 0.82080839E+03</totfact>
</mgrwt>
</event>
<event>
 8    1  0.1893090E-003  0.2212942E+03  0.7546771E-02  0.1133618E+00
          2   -1    0    0  501    0  0.00000000000E+00  0.00000000000E+00  0.10399912703E+04  0.10399912703E+04  0.00000000000E+00 0. -1.
         -2   -1    0    0    0  501 -0.00000000000E+00 -0.00000000000E+00 -0.51526552138E+02  0.51526552138E+02  0.00000000000E+00 0.  1.
         23    2    1    2    0    0  0.27778513418E+02  0.19618587339E+03  0.31660477275E+03  0.38415164065E+03  0.89851867897E+02 0.  0.
         23    2    1    2    0    0 -0.27778513418E+02 -0.19618587339E+03  0.67185994544E+03  0.70736618180E+03  0.98542306401E+02 0.  0.
          5    1    3    3  502    0  0.16593467420E+02  0.15645479340E+02  0.49957119680E+01  0.23815358970E+02  0.47000000000E+01 0. -1.
         -5    1    4    4    0  503 -0.10271226560E+02 -0.72465666200E+02  0.11318629233E+03  0.13487029934E+03  0.47000000000E+01 0.  1.
          5    1    4    4  503    0 -0.17507286858E+02 -0.12372020719E+03  0.55867365311E+03  0.57249588247E+03  0.47000000000E+01 0. -1.
         -5    1    3    3    0  502  0.11185045998E+02  0.18054039406E+03  0.31160906078E+03  0.36033628168E+03  0.47000000000E+01 0.  1.
<mgrwt>
<rscale>  0 0.22035559E+03</rscale>
<asrwt>0</asrwt>
<pdfrwt beam="1">  1        2 0.15999864E+00 0.22129421E+03</pdfrwt>
<pdfrwt beam="2">  1       -2 0.79271626E-02 0.22129421E+03</pdfrwt>
<totfact> 0.23735347E+03</totfact>
</mgrwt>
</event>
<event>
 8    1  0.1893090E-003  0.1029207E+03  0.7546771E-02  0.1275585E+00
          1   -1    0    0  501    0  0.00000000000E+00  0.00000000000E+00  0.35215135507E+03  0.35215135507E+03  0.00000000000E+00 0. -1.
         -1   -1    0    0    0  501 -0.00000000000E+00 -0.00000000000E+00 -0.29742590763E+02  0.29742590763E+02  0.00000000000E+00 0.  1.
         23    2    1    2    0    0 -0.12627512185E+02  0.36692969096E+02  0.18553242389E+03  0.21216728059E+03  0.95324952639E+02 0.  0.
         23    2    1    2    0    0  0.12627512185E+02 -0.36692969096E+02  0.13687634042E+03  0.16972666524E+03  0.92553661633E+02 0.  0.
          5    1    4    4  502    0  0.35956975633E+02 -0.29869434532E+02  0.21397659114E+02  0.51623996664E+02  0.47000000000E+01 0. -1.
         -5    1    3    3    0  503 -0.12301651245E+02  0.67122018757E+02  0.15177229883E+03  0.16647407221E+03  0.47000000000E+01 0.  1.
          5    1    3    3  503    0 -0.32586094034E+00 -0.30429049661E+02  0.33760125058E+02  0.45693208385E+02  0.47000000000E+01 0. -1.
         -5    1    4    4    0  502 -0.23329463448E+02 -0.68235345636E+01  0.11547868131E+03  0.11810266858E+03  0.47000000000E+01 0.  1.
<mgrwt>
<rscale>  0 0.10227432E+03</rscale>
<asrwt>0</asrwt>
<pdfrwt beam="1">  1        1 0.54177128E-01 0.10292072E+03</pdfrwt>
<pdfrwt beam="2">  1       -1 0.45757835E-02 0.10292072E+03</pdfrwt>
<totfact> 0.13215873E+04</totfact>
</mgrwt>
</event>
<event>
 8    1  0.1893090E-003  0.9658397E+02  0.7546771E-02  0.1289976E+00
          1   -1    0    0  501    0  0.00000000000E+00  0.00000000000E+00  0.15091010057E+03  0.15091010057E+03  0.00000000000E+00 0. -1.
         -1   -1    0    0    0  501 -0.00000000000E+00 -0.00000000000E+00 -0.60297516687E+02  0.60297516687E+02  0.00000000000E+00 0.  1.
         23    2    1    2    0    0  0.18438965720E+02  0.11985331623E+02  0.58578149057E+02  0.10944972437E+03  0.89800885227E+02 0.  0.
         23    2    1    2    0    0 -0.18438965720E+02 -0.11985331623E+02  0.32034434830E+02  0.10175789289E+03  0.94046903825E+02 0.  0.
          5    1    4    4  502    0  0.27281355340E+02 -0.31116607976E+02  0.31076109647E+02  0.51964701788E+02  0.47000000000E+01 0. -1.
         -5    1    4    4    0  502 -0.45720321060E+02  0.19131276354E+02  0.95832518326E+00  0.49793191100E+02  0.47000000000E+01 0.  1.
          5    1    3    3  503    0  0.33377942790E+02 -0.24809462984E+02  0.43599935461E+01  0.42079639521E+02  0.47000000000E+01 0. -1.
         -5    1    3    3    0  503 -0.14938977070E+02  0.36794794607E+02  0.54218155511E+02  0.67370084853E+02  0.47000000000E+01 0.  1.
<mgrwt>
<rscale>  0 0.95534638E+02</rscale>
<asrwt>0</asrwt>
<pdfrwt beam="1">  1        1 0.23216938E-01 0.96583973E+02</pdfrwt>
<pdfrwt beam="2">  1       -1 0.92765411E-02 0.96583973E+02</pdfrwt>
<totfact> 0.13066903E+04</totfact>
</mgrwt>
</event>
<event>
 8    1  0.1893090E-003  0.9416389E+02  0.7546771E-02  0.1294617E+00
          2   -1    0    0  501    0  0.00000000000E+00  0.00000000000E+00  0.44521315775E+03  0.44521315775E+03  0.00000000000E+00 0. -1.
         -2   -1    0    0    0  501 -0.00000000000E+00 -0.00000000000E+00 -0.80182563489E+02  0.80182563489E+02  0.00000000000E+00 0.  1.
         23    2    1    2    0    0  0.17782588838E+02 -0.33865422671E+01 -0.45650902859E+02  0.10464627277E+03  0.92407512350E+02 0.  0.
         23    2    1    2    0    0 -0.17782588838E+02  0.33865422671E+01  0.41068149713E+03  0.42074944847E+03  0.89683427540E+02 0.  0.
          5    1    4    4  502    0 -0.49065621446E+02 -0.99463353802E+01  0.31726289965E+03  0.32122297908E+03  0.47000000000E+01 0. -1.
         -5    1    3    3    0  503  0.13589783570E+02 -0.41069576136E+02  0.20121984603E+01  0.43560661658E+02  0.47000000000E+01 0.  1.
          5    1    3    3  503    0  0.41928052681E+01  0.37683033869E+02 -0.47663101320E+02  0.61085611113E+02  0.47000000000E+01 0. -1.
         -5    1    4    4    0  502  0.31283032607E+02  0.13332877647E+02  0.93418597474E+02  0.99526469391E+02  0.47000000000E+01 0.  1.
<mgrwt>
<rscale>  0 0.93488715E+02</rscale>
<asrwt>0</asrwt>
<pdfrwt beam="1">  1        2 0.68494331E-01 0.94163886E+02</pdfrwt>
<pdfrwt beam="2">  1       -2 0.12335779E-01 0.94163886E+02</pdfrwt>
<totfact> 0.31994005E+03</totfact>
</mgrwt>
</event>
<event>
 8    1  0.1893090E-003  0.1292958E+03  0.7546771E-02  0.1240411E+00
          1   -1    0    0  501    0  0.00000000000E+00  0.00000000000E+00  0.25617939358E+03  0.25617939358E+03  0.00000000000E+00 0. -1.
         -1   -1    0    0    0  501 -0.00000000000E+00 -0.00000000000E+00 -0.51896544407E+02  0.51896544407E+02  0.00000000000E+00 0.  1.
         23    2    1    2    0    0  0.43615166013E+00  0.43356192885E+02  0.88032358809E+02  0.13420362828E+03  0.91547626714E+02 0.  0.
         23    2    1    2    0    0 -0.43615166013E+00 -0.43356192885E+02  0.11625049037E+03  0.17387230971E+03  0.12180908785E+03 0.  0.
          5    1    4    4  502    0 -0.56339752306E+02 -0.39874625964E+02  0.84877445740E+02  0.10950079580E+03  0.47000000000E+01 0. -1.
         -5    1    4    4    0  502  0.55903600646E+02 -0.34815669210E+01  0.31373044626E+02  0.64371513905E+02  0.47000000000E+01 0.  1.
          5    1    3    3  503    0  0.10594034235E+02 -0.26898576816E+02  0.18011545336E+02  0.34384193484E+02  0.47000000000E+01 0. -1.
         -5    1    3    3    0  503 -0.10157882575E+02  0.70254769701E+02  0.70020813473E+02  0.99819434799E+02  0.47000000000E+01 0.  1.
<mgrwt>
<rscale>  0 0.12164285E+03</rscale>
<asrwt>0</asrwt>
<pdfrwt beam="1">  1        1 0.39412214E-01 0.12929580E+03</pdfrwt>
<pdfrwt beam="2">  1       -1 0.79840839E-02 0.12929580E+03</pdfrwt>
<totfact> 0.87239571E+03</totfact>
</mgrwt>
</event>
<event>
 8    1  0.1893090E-003  0.1148743E+03  0.7546771E-02  0.1252178E+00
          1   -1    0    0  501    0  0.00000000000E+00  0.00000000000E+00  0.76549867031E+03  0.76549867031E+03  0.00000000000E+00 0. -1.
         -1   -1    0    0    0  501 -0.00000000000E+00 -0.00000000000E+00 -0.18037626284E+02  0.18037626284E+02  0.00000000000E+00 0.  1.
         23    2    1    2    0    0  0.46641644482E+02 -0.51047097031E+02  0.46125676688E+03  0.47513884056E+03  0.90652433532E+02 0.  0.
         23    2    1    2    0    0 -0.46641644482E+02  0.51047097031E+02  0.28620427715E+03  0.30839745603E+03  0.91732510667E+02 0.  0.
          5    1    3    3  502    0  0.66483355380E+02 -0.23659255748E+02  0.21039126606E+03  0.22196029320E+03  0.47000000000E+01 0. -1.
         -5    1    3    3    0  502 -0.19841710899E+02 -0.27387841283E+02  0.25086550082E+03  0.25317854736E+03  0.47000000000E+01 0.  1.
          5    1    4    4  503    0  0.19563416831E+02 -0.43972683354E+01  0.11233548438E+03  0.11420776811E+03  0.47000000000E+01 0. -1.
         -5    1    4    4    0  503 -0.66205061313E+02  0.55444365367E+02  0.17386879277E+03  0.19418968792E+03  0.47000000000E+01 0.  1.
<mgrwt>
<rscale>  0 0.11465852E+03</rscale>
<asrwt>0</asrwt>
<pdfrwt beam="1">  1        1 0.11776900E+00 0.11487429E+03</pdfrwt>
<pdfrwt beam="2">  1       -1 0.27750200E-02 0.11487429E+03</pdfrwt>
<totfact> 0.99074014E+03</totfact>
</mgrwt>
</event>
<event>
 8    1  0.1893090E-003  0.1127150E+03  0.7546771E-02  0.1255716E+00
         -2   -1    0    0    0  501 -0.00000000000E+00  0.00000000000E+00  0.44874605275E+02  0.44874605275E+02  0.00000000000E+00 0.  1.
          2   -1    0    0  501    0  0.00000000000E+00 -0.00000000000E+00 -0.32774891700E+03  0.32774891700E+03  0.00000000000E+00 0. -1.
         23    2    1    2    0    0 -0.45183746155E+02 -0.50017228620E+02 -0.21047755221E+03  0.23866095432E+03  0.90083056434E+02 0.  0.
         23    2    1    2    0    0  0.45183746155E+02  0.50017228620E+02 -0.72396759516E+02  0.13396256796E+03  0.90340382720E+02 0.  0.
          5    1    4    4  502    0  0.65207962860E+02  0.60984116383E+02 -0.57613591475E+02  0.10636050392E+03  0.47000000000E+01 0. -1.
         -5    1    4    4    0  502 -0.20024216705E+02 -0.10966887763E+02 -0.14783168041E+02  0.27602064038E+02  0.47000000000E+01 0.  1.
          5    1    3    3  503    0  0.81251296767E+01 -0.54182673976E+02 -0.13733878174E+03  0.14793853745E+03  0.47000000000E+01 0. -1.
         -5    1    3    3    0  503 -0.53308875832E+02  0.41654453556E+01 -0.73138770467E+02  0.90722416871E+02  0.47000000000E+01 0.  1.
<mgrwt>
<rscale>  0 0.11266346E+03</rscale>
<asrwt>0</asrwt>
<pdfrwt beam="1">  1        2 0.50422909E-01 0.11271503E+03</pdfrwt>
<pdfrwt beam="2">  1       -2 0.69037856E-02 0.11271503E+03</pdfrwt>
<totfact> 0.11012067E+04</totfact>
</mgrwt>
</event>
<event>
 8    1  0.1893090E-003  0.1050147E+03  0.7546771E-02  0.1271750E+00
         -2   -1    0    0    0  501 -0.00000000000E+00  0.00000000000E+00  0.14461744537E+03  0.14461744537E+03  0.00000000000E+00 0.  1.
          2   -1    0    0  501    0  0.00000000000E+00 -0.00000000000E+00 -0.95138727823E+02  0.95138727823E+02  0.00000000000E+00 0. -1.
         23    2    1    2    0    0 -0.37106270826E+02 -0.33954492332E+02 -0.31626006634E+02  0.10967359427E+03  0.92186279346E+02 0.  0.
         23    2    1    2    0    0  0.37106270826E+02  0.33954492332E+02  0.81104724178E+02  0.13008257892E+03  0.88395238396E+02 0.  0.
          5    1    4    4  502    0  0.61610893038E+02  0.38327421687E+02  0.74064628090E+02  0.10379090773E+03  0.47000000000E+01 0. -1.
         -5    1    4    4    0  502 -0.24504622213E+02 -0.43729293557E+01  0.70400960874E+01  0.26291671188E+02  0.47000000000E+01 0.  1.
          5    1    3    3  503    0  0.26141436319E+02  0.93156270820E+01 -0.64722148215E+01  0.28881398260E+02  0.47000000000E+01 0. -1.
         -5    1    3    3    0  503 -0.63247707145E+02 -0.43270119414E+02 -0.25153791812E+02  0.80792196007E+02  0.47000000000E+01 0.  1.
<mgrwt>
<rscale>  0 0.10417682E+03</rscale>
<asrwt>0</asrwt>
<pdfrwt beam="1">  1        2 0.14636727E-01 0.10501473E+03</pdfrwt>
<pdfrwt beam="2">  1       -2 0.22248838E-01 0.10501473E+03</pdfrwt>
<totfact> 0.65102310E+03</totfact>
</mgrwt>
</event>
<event>
 8    1  0.1893090E-003  0.1057486E+03  0.7546771E-02  0.1269877E+00
         -1   -1    0    0    0  501 -0.00000000000E+00  0.00000000000E+00  0.10471250947E+03  0.10471250947E+03  0.00000000000E+00 0.  1.
          1   -1    0    0  501    0  0.00000000000E+00 -0.00000000000E+00 -0.17565412332E+03  0.17565412332E+03  0.00000000000E+00 0. -1.
         23    2    1    2    0    0  0.49391361871E+02  0.16498043531E+02  0.53618504294E+02  0.11856517553E+03  0.92038387523E+02 0.  0.
         23    2    1    2    0    0 -0.49391361871E+02 -0.16498043531E+02 -0.12456011814E+03  0.16180145727E+03  0.89178452970E+02 0.  0.
          5    1    3    3  502    0  0.17929152927E+02 -0.28662401143E+02 -0.87640950948E+01  0.35240418936E+02  0.47000000000E+01 0. -1.
         -5    1    4    4    0  503  0.13095348006E+02  0.24643882626E+02 -0.33323901402E+02  0.43719349205E+02  0.47000000000E+01 0.  1.
          5    1    4    4  503    0 -0.62486709877E+02 -0.41141926157E+02 -0.91236216741E+02  0.11808210806E+03  0.47000000000E+01 0. -1.
         -5    1    3    3    0  502  0.31462208944E+02  0.45160444674E+02  0.62382599389E+02  0.83324756593E+02  0.47000000000E+01 0.  1.
<mgrwt>
<rscale>  0 0.10512314E+03</rscale>
<asrwt>0</asrwt>
<pdfrwt beam="1">  1        1 0.27023711E-01 0.10574855E+03</pdfrwt>
<pdfrwt beam="2">  1       -1 0.16109617E-01 0.10574855E+03</pdfrwt>
<totfact> 0.46744974E+03</totfact>
</mgrwt>
</event>
<event>
 8    1  0.1893090E-003  0.1337828E+03  0.7546771E-02  0.1233402E+00
          1   -1    0    0  501    0  0.00000000000E+00  0.00000000000E+00  0.10748176027E+04  0.10748176027E+04  0.00000000000E+00 0. -1.
         -1   -1    0    0    0  501 -0.00000000000E+00 -0.00000000000E+00 -0.15097408060E+02  0.15097408060E+02  0.00000000000E+00 0.  1.
         23    2    1    2    0    0 -0.10832329348E+02 -0.50725365488E+02  0.77099491101E+03  0.78251581401E+03  0.12331846703E+03 0.  0.
         23    2    1    2    0    0  0.10832329348E+02  0.50725365488E+02  0.28872528363E+03  0.30739919675E+03  0.91878042488E+02 0.  0.
          5    1    3    3  502    0 -0.36322004396E+02  0.24072346898E+02  0.14339779116E+03  0.14994593159E+03  0.47000000000E+01 0.  1.
         -5    1    3    3    0  502  0.25489675047E+02 -0.74797712386E+02  0.62759711984E+03  0.63256988242E+03  0.47000000000E+01 0. -1.
          5    1    4    4  503    0  0.26080807968E+02  0.31362826063E+01  0.22354695468E+03  0.22513412838E+03  0.47000000000E+01 0. -1.
         -5    1    4    4    0  503 -0.15248478619E+02  0.47589082881E+02  0.65178328953E+02  0.82265068375E+02  0.47000000000E+01 0.  1.
<mgrwt>
<rscale>  0 0.12607292E+03</rscale>
<asrwt>0</asrwt>
<pdfrwt beam="1">  1        1 0.16535649E+00 0.13378283E+03</pdfrwt>
<pdfrwt beam="2">  1       -1 0.23226790E-02 0.13378283E+03</pdfrwt>
<totfact> 0.75130292E+03</totfact>
</mgrwt>
</event>
<event>
 8    1  0.1893090E-003  0.1033498E+03  0.7546771E-02  0.1276897E+00
          2   -1    0    0  501    0  0.00000000000E+00  0.00000000000E+00  0.35046051634E+02  0.35046051634E+02  0.00000000000E+00 0. -1.
         -2   -1    0    0    0  501 -0.00000000000E+00 -0.00000000000E+00 -0.41319844361E+03  0.41319844361E+03  0.00000000000E+00 0.  1.
         23    2    1    2    0    0 -0.11828341649E+02  0.40754202408E+02 -0.68829395079E+02  0.12417190755E+03  0.94235674337E+02 0.  0.
         23    2    1    2    0    0  0.11828341649E+02 -0.40754202408E+02 -0.30932299690E+03  0.32407258769E+03  0.86841873565E+02 0.  0.
          5    1    3    3  502    0 -0.46786776697E+02  0.26596098007E+02 -0.11254094863E+02  0.55182420698E+02  0.47000000000E+01 0. -1.
         -5    1    3    3    0  502  0.34958435048E+02  0.14158104400E+02 -0.57575300216E+02  0.68989486853E+02  0.47000000000E+01 0.  1.
          5    1    4    4  503    0 -0.14471372557E+02 -0.60098387026E+02 -0.22894259144E+03  0.23718776723E+03  0.47000000000E+01 0. -1.
         -5    1    4    4    0  503  0.26299714206E+02  0.19344184618E+02 -0.80380405454E+02  0.86884820463E+02  0.47000000000E+01 0.  1.
<mgrwt>
<rscale>  0 0.10163401E+03</rscale>
<asrwt>0</asrwt>
<pdfrwt beam="1">  1        2 0.53917004E-02 0.10334978E+03</pdfrwt>
<pdfrwt beam="2">  1       -2 0.63568990E-01 0.10334978E+03</pdfrwt>
<totfact> 0.31205070E+03</totfact>
</mgrwt>
</event>
<event>
 8    1  0.1893090E-003  0.9094392E+02  0.7546771E-02  0.1303428E+00
         -3   -1    0    0    0  501 -0.00000000000E+00  0.00000000000E+00  0.32983296989E+03  0.32983296989E+03  0.00000000000E+00 0.  1.
          3   -1    0    0  501    0  0.00000000000E+00 -0.00000000000E+00 -0.46567713228E+02  0.46567713228E+02  0.00000000000E+00 0. -1.
         23    2    1    2    0    0  0.69063300431E+01  0.12514643055E+02  0.27505624633E+03  0.28970111304E+03  0.89813598989E+02 0.  0.
         23    2    1    2    0    0 -0.69063300431E+01 -0.12514643055E+02  0.82090103299E+01  0.86699570081E+02  0.85118234922E+02 0.  0.
          5    1    3    3  502    0  0.17429575940E+02 -0.16106903556E+02  0.16439162465E+02  0.29249932003E+02  0.47000000000E+01 0. -1.
         -5    1    3    3    0  502 -0.10523245897E+02  0.28621546610E+02  0.25861708387E+03  0.26045118104E+03  0.47000000000E+01 0.  1.
          5    1    4    4  503    0  0.51082589023E+00 -0.42321276185E+02 -0.17822277538E+02  0.46163567211E+02  0.47000000000E+01 0. -1.
         -5    1    4    4    0  503 -0.74171559333E+01  0.29806633130E+02  0.26031287867E+02  0.40536002871E+02  0.47000000000E+01 0.  1.
<mgrwt>
<rscale>  0 0.89762638E+02</rscale>
<asrwt>0</asrwt>
<pdfrwt beam="1">  1        3 0.71642638E-02 0.90943918E+02</pdfrwt>
<pdfrwt beam="2">  1       -3 0.50743532E-01 0.90943918E+02</pdfrwt>
<totfact> 0.10647542E+03</totfact>
</mgrwt>
</event>
<event>
 8    1  0.1893090E-003  0.1068812E+03  0.7546771E-02  0.1273886E+00
          2   -1    0    0  501    0  0.00000000000E+00  0.00000000000E+00  0.36902025110E+03  0.36902025110E+03  0.00000000000E+00 0. -1.
         -2   -1    0    0    0  501 -0.00000000000E+00 -0.00000000000E+00 -0.36778453507E+02  0.36778453507E+02  0.00000000000E+00 0.  1.
         23    2    1    2    0    0 -0.48151437475E+01  0.17329386644E+02  0.52718199479E+02  0.10653790115E+03  0.90816422384E+02 0.  0.
         23    2    1    2    0    0  0.48151437475E+01 -0.17329386644E+02  0.27952359811E+03  0.29926080346E+03  0.10535698046E+03 0.  0.
          5    1    3    3  502    0  0.41948138130E+02  0.48315597652E+00  0.19003617607E+02  0.46293705991E+02  0.47000000000E+01 0. -1.
         -5    1    4    4    0  503 -0.42492364150E+02 -0.18362792318E+02  0.67580268883E+02  0.82048619093E+02  0.47000000000E+01 0.  1.
          5    1    4    4  503    0  0.47307507897E+02  0.10334056740E+01  0.21194332923E+03  0.21721218436E+03  0.47000000000E+01 0. -1.
         -5    1    3    3    0  502 -0.46763281877E+02  0.16846230667E+02  0.33714581872E+02  0.60244195160E+02  0.47000000000E+01 0.  1.
<mgrwt>
<rscale>  0 0.10311114E+03</rscale>
<asrwt>0</asrwt>
<pdfrwt beam="1">  1        2 0.56772344E-01 0.10688118E+03</pdfrwt>
<pdfrwt beam="2">  1       -2 0.56582239E-02 0.10688118E+03</pdfrwt>
<totfact> 0.13068953E+04</totfact>
</mgrwt>
</event>
<event>
 8    1  0.1893090E-003  0.9343818E+02  0.7546771E-02  0.1295399E+00
          2   -1    0    0  501    0  0.00000000000E+00  0.00000000000E+00  0.52711278695E+03  0.52711278695E+03  0.00000000000E+00 0. -1.
         -2   -1    0    0    0  501 -0.00000000000E+00 -0.00000000000E+00 -0.16452233875E+02  0.16452233875E+02  0.00000000000E+00 0.  1.
         23    2    1    2    0    0  0.10946743306E+02  0.76724210827E+01  0.27408499595E+03  0.28920565288E+03  0.91316085236E+02 0.  0.
         23    2    1    2    0    0 -0.10946743306E+02 -0.76724210827E+01  0.23657555712E+03  0.25435936794E+03  0.92477005757E+02 0.  0.
          5    1    3    3  502    0  0.35918234746E+02  0.23838760661E+02  0.23928786157E+03  0.24318547817E+03  0.47000000000E+01 0. -1.
         -5    1    3    3    0  502 -0.24971491440E+02 -0.16166339578E+02  0.34797134379E+02  0.46020174718E+02  0.47000000000E+01 0.  1.
          5    1    4    4  503    0  0.40107980572E+02  0.39158091212E+01  0.11329588753E+03  0.12034131376E+03  0.47000000000E+01 0. -1.
         -5    1    4    4    0  503 -0.51054723877E+02 -0.11588230204E+02  0.12327966959E+03  0.13401805417E+03  0.47000000000E+01 0.  1.
<mgrwt>
<rscale>  0 0.93149641E+02</rscale>
<asrwt>0</asrwt>
<pdfrwt beam="1">  1        2 0.81094262E-01 0.93438182E+02</pdfrwt>
<pdfrwt beam="2">  1       -2 0.25311133E-02 0.93438182E+02</pdfrwt>
<totfact> 0.28796275E+04</totfact>
</mgrwt>
</event>
<event>
 8    1  0.1893090E-003  0.9955578E+02  0.7546771E-02  0.1281483E+00
         -2   -1    0    0    0  501 -0.00000000000E+00  0.00000000000E+00  0.33312390397E+03  0.33312390397E+03  0.00000000000E+00 0.  1.
          2   -1    0    0  501    0  0.00000000000E+00 -0.00000000000E+00 -0.35339006968E+02  0.35339006968E+02  0.00000000000E+00 0. -1.
         23    2    1    2    0    0 -0.78552438414E+01  0.38982417265E+02  0.22335629002E+03  0.24453913069E+03  0.91268945625E+02 0.  0.
         23    2    1    2    0    0  0.78552438414E+01 -0.38982417265E+02  0.74428606975E+02  0.12392378024E+03  0.90753248214E+02 0.  0.
          5    1    3    3  502    0 -0.21888755008E+02 -0.25180760239E+02  0.77555772806E+02  0.84558714380E+02  0.47000000000E+01 0. -1.
         -5    1    4    4    0  503 -0.26327095213E+02  0.15500249335E+02  0.40818070412E+02  0.51201352950E+02  0.47000000000E+01 0.  1.
          5    1    4    4  503    0  0.34182339054E+02 -0.54482666599E+02  0.33610536563E+02  0.72722427291E+02  0.47000000000E+01 0. -1.
         -5    1    3    3    0  502  0.14033511167E+02  0.64163177504E+02  0.14580051722E+03  0.15998041631E+03  0.47000000000E+01 0.  1.
<mgrwt>
<rscale>  0 0.99437434E+02</rscale>
<asrwt>0</asrwt>
<pdfrwt beam="1">  1        2 0.54367705E-02 0.99555784E+02</pdfrwt>
<pdfrwt beam="2">  1       -2 0.51249829E-01 0.99555784E+02</pdfrwt>
<totfact> 0.47573964E+03</totfact>
</mgrwt>
</event>
<event>
 8    1  0.1893090E-003  0.1330273E+03  0.7546771E-02  0.1223574E+00
          1   -1    0    0  501    0  0.00000000000E+00  0.00000000000E+00  0.88848582102E+03  0.88848582102E+03  0.00000000000E+00 0. -1.
         -1   -1    0    0    0  501 -0.00000000000E+00 -0.00000000000E+00 -0.19702939593E+02  0.19702939593E+02  0.00000000000E+00 0.  1.
         23    2    1    2    0    0 -0.96759822512E+02 -0.81489193915E+01  0.42214232732E+03  0.44215865785E+03  0.88720155863E+02 0.  0.
         23    2    1    2    0    0  0.96759822512E+02  0.81489193915E+01  0.44664055411E+03  0.46603010276E+03  0.90925265839E+02 0.  0.
          5    1    3    3  502    0 -0.10514584208E+03  0.13794667177E+02  0.31623390780E+03  0.33357445254E+03  0.47000000000E+01 0. -1.
         -5    1    3    3    0  502  0.83860195725E+01 -0.21943586568E+02  0.10590841952E+03  0.10858420530E+03  0.47000000000E+01 0.  1.
          5    1    4    4  503    0  0.83002798182E+02 -0.32862076309E+02  0.29095697136E+03  0.30438040303E+03  0.47000000000E+01 0.  1.
         -5    1    4    4    0  503  0.13757024330E+02  0.41010995701E+02  0.15568358275E+03  0.16164969974E+03  0.47000000000E+01 0. -1.
<mgrwt>
<rscale>  0 0.13265141E+03</rscale>
<asrwt>0</asrwt>
<pdfrwt beam="1">  1        1 0.13669010E+00 0.13302734E+03</pdfrwt>
<pdfrwt beam="2">  1       -1 0.30312222E-02 0.13302734E+03</pdfrwt>
<totfact> 0.70075406E+03</totfact>
</mgrwt>
</event>
<event>
 8    1  0.1893090E-003  0.1098911E+03  0.7546771E-02  0.1261104E+00
         -1   -1    0    0    0  501 -0.00000000000E+00  0.00000000000E+00  0.29795952342E+02  0.29795952342E+02  0.00000000000E+00 0.  1.
          1   -1    0    0  501    0  0.00000000000E+00 -0.00000000000E+00 -0.42481535917E+03  0.42481535917E+03  0.00000000000E+00 0. -1.
         23    2    1    2    0    0 -0.29290967647E+02  0.54148241543E+02 -0.25002884702E+03  0.27311256701E+03  0.91027781864E+02 0.  0.
         23    2    1    2    0    0  0.29290967647E+02 -0.54148241543E+02 -0.14499055981E+03  0.18149874450E+03  0.90163956066E+02 0.  0.
          5    1    3    3  502    0  0.15064225198E+02  0.62540331055E+02 -0.14797030354E+03  0.16141723767E+03  0.47000000000E+01 0. -1.
         -5    1    3    3    0  502 -0.44355192844E+02 -0.83920895123E+01 -0.10205854348E+03  0.11169532934E+03  0.47000000000E+01 0.  1.
          5    1    4    4  503    0 -0.69953934120E+01 -0.46257397777E+02 -0.20127080073E+02  0.51145593460E+02  0.47000000000E+01 0. -1.
         -5    1    4    4    0  503  0.36286361059E+02 -0.78908437660E+01 -0.12486347974E+03  0.13035315104E+03  0.47000000000E+01 0.  1.
<mgrwt>
<rscale>  0 0.10971203E+03</rscale>
<asrwt>0</asrwt>
<pdfrwt beam="1">  1        1 0.65356209E-01 0.10989108E+03</pdfrwt>
<pdfrwt beam="2">  1       -1 0.45839927E-02 0.10989108E+03</pdfrwt>
<totfact> 0.10491058E+04</totfact>
</mgrwt>
</event>
<event>
 8    1  0.1893090E-003  0.1175044E+03  0.7546771E-02  0.1247419E+00
         -2   -1    0    0    0  501 -0.00000000000E+00  0.00000000000E+00  0.62072908732E+02  0.62072908732E+02  0.00000000000E+00 0.  1.
          2   -1    0    0  501    0  0.00000000000E+00 -0.00000000000E+00 -0.31057101993E+03  0.31057101993E+03  0.00000000000E+00 0. -1.
         23    2    1    2    0    0  0.37156322999E+02 -0.62406644173E+02 -0.22374277111E+03  0.25256012407E+03  0.91927183527E+02 0.  0.
         23    2    1    2    0    0 -0.37156322999E+02  0.62406644173E+02 -0.24755340089E+02  0.12008380459E+03  0.92369430477E+02 0.  0.
          5    1    4    4  502    0  0.24309291839E+02  0.43694192579E+02  0.21521821564E+01  0.50267743364E+02  0.47000000000E+01 0. -1.
         -5    1    4    4    0  502 -0.61465614838E+02  0.18712451594E+02 -0.26907522245E+02  0.69816061228E+02  0.47000000000E+01 0.  1.
          5    1    3    3  503    0  0.59103241454E+02 -0.46069555722E+02 -0.96211468095E+02  0.12204234391E+03  0.47000000000E+01 0. -1.
         -5    1    3    3    0  503 -0.21946918455E+02 -0.16337088451E+02 -0.12753130301E+03  0.13051778015E+03  0.47000000000E+01 0.  1.
<mgrwt>
<rscale>  0 0.11741751E+03</rscale>
<asrwt>0</asrwt>
<pdfrwt beam="1">  1        2 0.47780157E-01 0.11750444E+03</pdfrwt>
<pdfrwt beam="2">  1       -2 0.95496783E-02 0.11750444E+03</pdfrwt>
<totfact> 0.70937093E+03</totfact>
</mgrwt>
</event>
<event>
 8    1  0.1893090E-003  0.9365938E+02  0.7546771E-02  0.1294843E+00
          2   -1    0    0  501    0  0.00000000000E+00  0.00000000000E+00  0.81510988476E+02  0.81510988476E+02  0.00000000000E+00 0. -1.
         -2   -1    0    0    0  501 -0.00000000000E+00 -0.00000000000E+00 -0.16951065067E+03  0.16951065067E+03  0.00000000000E+00 0.  1.
         23    2    1    2    0    0 -0.19237784038E+02  0.54087121763E+01 -0.12042907711E+03  0.15190682809E+03  0.90405615455E+02 0.  0.
         23    2    1    2    0    0  0.19237784038E+02 -0.54087121763E+01  0.32429414914E+02  0.99114811054E+02  0.91502635571E+02 0.  0.
          5    1    4    4  502    0  0.50327037353E+02 -0.20694635144E+02  0.53247374130E+01  0.54877330847E+02  0.47000000000E+01 0. -1.
         -5    1    4    4    0  502 -0.31089253314E+02  0.15285922967E+02  0.27104677501E+02  0.44237480206E+02  0.47000000000E+01 0.  1.
          5    1    3    3  503    0  0.29324087009E+02  0.18525153985E+02 -0.22204987875E+02  0.41451597021E+02  0.47000000000E+01 0. -1.
         -5    1    3    3    0  503 -0.48561871047E+02 -0.13116441808E+02 -0.98224089235E+02  0.11045523107E+03  0.47000000000E+01 0.  1.
<mgrwt>
<rscale>  0 0.93390354E+02</rscale>
<asrwt>0</asrwt>
<pdfrwt beam="1">  1        2 0.12540152E-01 0.93659377E+02</pdfrwt>
<pdfrwt beam="2">  1       -2 0.26078562E-01 0.93659377E+02</pdfrwt>
<totfact> 0.58810440E+03</totfact>
</mgrwt>
</event>
<event>
 8    1  0.1893090E-003  0.1077242E+03  0.7546771E-02  0.1266457E+00
         -1   -1    0    0    0  501 -0.00000000000E+00  0.00000000000E+00  0.85325636812E+02  0.85325636812E+02  0.00000000000E+00 0.  1.
          1   -1    0    0  501    0  0.00000000000E+00 -0.00000000000E+00 -0.13338771665E+03  0.13338771665E+03  0.00000000000E+00 0. -1.
         23    2    1    2    0    0 -0.18530531120E+02  0.51327031450E+02 -0.11835744514E+02  0.10506102792E+03  0.88993763820E+02 0.  0.
         23    2    1    2    0    0  0.18530531120E+02 -0.51327031450E+02 -0.36226335326E+02  0.11365232554E+03  0.92879809370E+02 0.  0.
          5    1    4    4  502    0 -0.11912828390E+02 -0.22845133844E+02 -0.59974594945E+02  0.65443545590E+02  0.47000000000E+01 0. -1.
         -5    1    4    4    0  502  0.30443359510E+02 -0.28481897606E+02  0.23748259618E+02  0.48208779951E+02  0.47000000000E+01 0.  1.
          5    1    3    3  503    0  0.33252117917E+02  0.87909080689E+01 -0.14982977103E+02  0.37809562462E+02  0.47000000000E+01 0. -1.
         -5    1    3    3    0  503 -0.51782649037E+02  0.42536123381E+02  0.31472325898E+01  0.67251465460E+02  0.47000000000E+01 0.  1.
<mgrwt>
<rscale>  0 0.10688137E+03</rscale>
<asrwt>0</asrwt>
<pdfrwt beam="1">  1        1 0.20521187E-01 0.10772420E+03</pdfrwt>
<pdfrwt beam="2">  1       -1 0.13127021E-01 0.10772420E+03</pdfrwt>
<totfact> 0.90771334E+03</totfact>
</mgrwt>
</event>
<event>
 8    1  0.1893090E-003  0.1062648E+03  0.7546771E-02  0.1268366E+00
          2   -1    0    0  501    0  0.00000000000E+00  0.00000000000E+00  0.10655719860E+04  0.10655719860E+04  0.00000000000E+00 0. -1.
         -2   -1    0    0    0  501 -0.00000000000E+00 -0.00000000000E+00 -0.11026966050E+02  0.11026966050E+02  0.00000000000E+00 0.  1.
         23    2    1    2    0    0  0.13440256610E+02  0.50022026836E+02  0.64679006379E+03  0.65522464730E+03  0.91099440970E+02 0.  0.
         23    2    1    2    0    0 -0.13440256610E+02 -0.50022026836E+02  0.40775495613E+03  0.42137430472E+03  0.92786619526E+02 0.  0.
          5    1    4    4  502    0  0.34130846925E+02 -0.15796699176E+02  0.25308800787E+03  0.25591029707E+03  0.47000000000E+01 0. -1.
         -5    1    3    3    0  503 -0.38070560053E+02  0.13390398538E+02  0.29272078835E+03  0.29552702118E+03  0.47000000000E+01 0.  1.
          5    1    3    3  503    0  0.51510816663E+02  0.36631628297E+02  0.35406927544E+03  0.35969762612E+03  0.47000000000E+01 0. -1.
         -5    1    4    4    0  502 -0.47571103535E+02 -0.34225327659E+02  0.15466694826E+03  0.16546400766E+03  0.47000000000E+01 0.  1.
<mgrwt>
<rscale>  0 0.10589535E+03</rscale>
<asrwt>0</asrwt>
<pdfrwt beam="1">  1        2 0.16393407E+00 0.10626477E+03</pdfrwt>
<pdfrwt beam="2">  1       -2 0.16964572E-02 0.10626477E+03</pdfrwt>
<totfact> 0.22070043E+04</totfact>
</mgrwt>
</event>
<event>
 8    1  0.1893090E-003  0.9943806E+02  0.7546771E-02  0.1282831E+00
         -2   -1    0    0    0  501 -0.00000000000E+00  0.00000000000E+00  0.89949966138E+02  0.89949966138E+02  0.00000000000E+00 0.  1.
          2   -1    0    0  501    0  0.00000000000E+00 -0.00000000000E+00 -0.19375171833E+03  0.19375171833E+03  0.00000000000E+00 0. -1.
         23    2    1    2    0    0 -0.23389593968E+01 -0.38634564070E+02  0.42553814424E+02  0.10816078422E+03  0.91596003458E+02 0.  0.
         23    2    1    2    0    0  0.23389593968E+01  0.38634564070E+02 -0.14635556662E+03  0.17554090025E+03  0.88862565279E+02 0.  0.
          5    1    4    4  502    0 -0.14594069518E+02  0.26865178427E+02 -0.15079062026E+03  0.15393058772E+03  0.47000000000E+01 0. -1.
         -5    1    3    3    0  503  0.85979247515E+01 -0.20397869446E+02  0.69744484967E+02  0.73323806306E+02  0.47000000000E+01 0.  1.
          5    1    3    3  503    0 -0.10936884148E+02 -0.18236694625E+02 -0.27190670543E+02  0.34836977916E+02  0.47000000000E+01 0. -1.
         -5    1    4    4    0  502  0.16933028915E+02  0.11769385644E+02  0.44350536452E+01  0.21610312526E+02  0.47000000000E+01 0.  1.
<mgrwt>
<rscale>  0 0.98804016E+02</rscale>
<asrwt>0</asrwt>
<pdfrwt beam="1">  1        2 0.29807956E-01 0.99438062E+02</pdfrwt>
<pdfrwt beam="2">  1       -2 0.13838457E-01 0.99438062E+02</pdfrwt>
<totfact> 0.64259466E+03</totfact>
</mgrwt>
</event>
<event>
 8    1  0.1893090E-003  0.9166291E+02  0.7546771E-02  0.1299714E+00
         -1   -1    0    0    0  501 -0.00000000000E+00  0.00000000000E+00  0.10631230418E+03  0.10631230418E+03  0.00000000000E+00 0.  1.
          1   -1    0    0  501    0  0.00000000000E+00 -0.00000000000E+00 -0.81980798869E+02  0.81980798869E+02  0.00000000000E+00 0. -1.
         23    2    1    2    0    0 -0.36717180481E+01 -0.90595323218E+01 -0.89531481050E+01  0.92099120818E+02  0.91140180794E+02 0.  0.
         23    2    1    2    0    0  0.36717180481E+01  0.90595323218E+01  0.33284653416E+02  0.96193982232E+02  0.89720997683E+02 0.  0.
          5    1    4    4  502    0 -0.16452661468E+02 -0.31114829312E+02  0.36472705814E+02  0.50903545475E+02  0.47000000000E+01 0. -1.
         -5    1    3    3    0  503  0.42973631127E+02  0.58486986041E+00  0.85019801993E+00  0.43242200241E+02  0.47000000000E+01 0.  1.
          5    1    3    3  503    0 -0.46645349175E+02 -0.96444021822E+01 -0.98033461250E+01  0.48856920578E+02  0.47000000000E+01 0. -1.
         -5    1    4    4    0  502  0.20124379516E+02  0.40174361633E+02 -0.31880523980E+01  0.45290436757E+02  0.47000000000E+01 0.  1.
<mgrwt>
<rscale>  0 0.91308115E+02</rscale>
<asrwt>0</asrwt>
<pdfrwt beam="1">  1        1 0.12612431E-01 0.91662911E+02</pdfrwt>
<pdfrwt beam="2">  1       -1 0.16355739E-01 0.91662911E+02</pdfrwt>
<totfact> 0.11836217E+04</totfact>
</mgrwt>
</event>
<event>
 8    1  0.1893090E-003  0.9769433E+02  0.7546771E-02  0.1286273E+00
         -1   -1    0    0    0  501 -0.00000000000E+00  0.00000000000E+00  0.73306299510E+02  0.73306299510E+02  0.00000000000E+00 0.  1.
          1   -1    0    0  501    0  0.00000000000E+00 -0.00000000000E+00 -0.14462066597E+03  0.14462066597E+03  0.00000000000E+00 0. -1.
         23    2    1    2    0    0 -0.14432966279E+02 -0.27753479254E+02 -0.73294287071E+02  0.12213203401E+03  0.92550608248E+02 0.  0.
         23    2    1    2    0    0  0.14432966279E+02  0.27753479254E+02  0.19799206106E+01  0.95794931473E+02  0.90521724928E+02 0.  0.
          5    1    3    3  502    0 -0.42002696124E+02 -0.13948729883E+02 -0.78762106680E+02  0.90467413999E+02  0.47000000000E+01 0. -1.
         -5    1    3    3    0  502  0.27569729845E+02 -0.13804749371E+02  0.54678196092E+01  0.31664620007E+02  0.47000000000E+01 0.  1.
          5    1    4    4  503    0  0.43687898876E+02  0.16482402329E+02  0.28117173324E+02  0.54708020714E+02  0.47000000000E+01 0. -1.
         -5    1    4    4    0  503 -0.29254932597E+02  0.11271076925E+02 -0.26137252713E+02  0.41086910759E+02  0.47000000000E+01 0.  1.
<mgrwt>
<rscale>  0 0.97210783E+02</rscale>
<asrwt>0</asrwt>
<pdfrwt beam="1">  1        1 0.22249333E-01 0.97694325E+02</pdfrwt>
<pdfrwt beam="2">  1       -1 0.11277892E-01 0.97694325E+02</pdfrwt>
<totfact> 0.10261561E+04</totfact>
</mgrwt>
</event>
<event>
 8    1  0.1893090E-003  0.1068727E+03  0.7546771E-02  0.1268331E+00
         -2   -1    0    0    0  501 -0.00000000000E+00  0.00000000000E+00  0.54440718173E+02  0.54440718173E+02  0.00000000000E+00 0.  1.
          2   -1    0    0  501    0  0.00000000000E+00 -0.00000000000E+00 -0.39151054711E+03  0.39151054711E+03  0.00000000000E+00 0. -1.
         23    2    1    2    0    0 -0.19383610132E+02 -0.48887710087E+02 -0.12022255427E+02  0.10378507821E+03  0.88662705207E+02 0.  0.
         23    2    1    2    0    0  0.19383610132E+02  0.48887710087E+02 -0.32504757351E+03  0.34216618707E+03  0.93037852464E+02 0.  0.
          5    1    4    4  502    0  0.41033580148E+02  0.49246147103E+02 -0.30680623217E+03  0.31346625306E+03  0.47000000000E+01 0. -1.
         -5    1    3    3    0  503  0.15950685162E+02  0.19657316968E+02 -0.47761773249E+01  0.26186567880E+02  0.47000000000E+01 0. -1.
          5    1    3    3  503    0 -0.35334295294E+02 -0.68545027055E+02 -0.72460781020E+01  0.77598510332E+02  0.47000000000E+01 0.  1.
         -5    1    4    4    0  502 -0.21649970016E+02 -0.35843701569E+00 -0.18241341337E+02  0.28699934017E+02  0.47000000000E+01 0.  1.
<mgrwt>
<rscale>  0 0.10591329E+03</rscale>
<asrwt>0</asrwt>
<pdfrwt beam="1">  1        2 0.60232391E-01 0.10687270E+03</pdfrwt>
<pdfrwt beam="2">  1       -2 0.83754952E-02 0.10687270E+03</pdfrwt>
<totfact> 0.67640484E+03</totfact>
</mgrwt>
</event>
<event>
 8    1  0.1893090E-003  0.1038241E+03  0.7546771E-02  0.1272916E+00
         -2   -1    0    0    0  501 -0.00000000000E+00  0.00000000000E+00  0.18381070873E+02  0.18381070873E+02  0.00000000000E+00 0.  1.
          2   -1    0    0  501    0  0.00000000000E+00 -0.00000000000E+00 -0.68873581246E+03  0.68873581246E+03  0.00000000000E+00 0. -1.
         23    2    1    2    0    0  0.72150526847E+01 -0.38055829280E+02 -0.19677010461E+03  0.22248126350E+03  0.96328269039E+02 0.  0.
         23    2    1    2    0    0 -0.72150526847E+01  0.38055829280E+02 -0.47358463699E+03  0.48463561983E+03  0.95336102787E+02 0.  0.
          5    1    4    4  502    0 -0.35998173346E+02 -0.96491744289E+00 -0.34869629838E+03  0.35058236985E+03  0.47000000000E+01 0. -1.
         -5    1    3    3    0  503  0.42779594533E+02 -0.24550427923E+02 -0.16627138196E+03  0.17349662728E+03  0.47000000000E+01 0.  1.
          5    1    3    3  503    0 -0.35564541849E+02 -0.13505401357E+02 -0.30498722648E+02  0.48984636223E+02  0.47000000000E+01 0. -1.
         -5    1    4    4    0  502  0.28783120661E+02  0.39020746722E+02 -0.12488833861E+03  0.13405324998E+03  0.47000000000E+01 0.  1.
<mgrwt>
<rscale>  0 0.10359334E+03</rscale>
<asrwt>0</asrwt>
<pdfrwt beam="1">  1        2 0.10595936E+00 0.10382407E+03</pdfrwt>
<pdfrwt beam="2">  1       -2 0.28278570E-02 0.10382407E+03</pdfrwt>
<totfact> 0.18328713E+04</totfact>
</mgrwt>
</event>
<event>
 8    1  0.1893090E-003  0.9538461E+02  0.7546771E-02  0.1290611E+00
          1   -1    0    0  501    0  0.00000000000E+00  0.00000000000E+00  0.15489507081E+02  0.15489507081E+02  0.00000000000E+00 0. -1.
         -1   -1    0    0    0  501 -0.00000000000E+00 -0.00000000000E+00 -0.58418035843E+03  0.58418035843E+03  0.00000000000E+00 0.  1.
         23    2    1    2    0    0 -0.16294200912E+02 -0.21462004583E+02 -0.28851099784E+03  0.30386973997E+03  0.91499204185E+02 0.  0.
         23    2    1    2    0    0  0.16294200912E+02  0.21462004583E+02 -0.28017985350E+03  0.29580012554E+03  0.90944188034E+02 0.  0.
          5    1    3    3  502    0  0.34567265496E+02 -0.26629201108E+02 -0.14173022523E+03  0.14836966313E+03  0.47000000000E+01 0. -1.
         -5    1    4    4    0  503 -0.32987924880E+02  0.29339467460E+02 -0.14389688687E+03  0.15059021080E+03  0.47000000000E+01 0.  1.
          5    1    4    4  503    0  0.49282125792E+02 -0.78774628776E+01 -0.13628296663E+03  0.14520991474E+03  0.47000000000E+01 0. -1.
         -5    1    3    3    0  502 -0.50861466408E+02  0.51671965256E+01 -0.14678077262E+03  0.15550007683E+03  0.47000000000E+01 0.  1.
<mgrwt>
<rscale>  0 0.95251257E+02</rscale>
<asrwt>0</asrwt>
<pdfrwt beam="1">  1        1 0.23830013E-02 0.95384606E+02</pdfrwt>
<pdfrwt beam="2">  1       -1 0.89873895E-01 0.95384606E+02</pdfrwt>
<totfact> 0.55652580E+03</totfact>
</mgrwt>
</event>
<event>
 8    1  0.1893090E-003  0.1210883E+03  0.7546771E-02  0.1241334E+00
          3   -1    0    0  501    0  0.00000000000E+00  0.00000000000E+00  0.16483616063E+03  0.16483616063E+03  0.00000000000E+00 0. -1.
         -3   -1    0    0    0  501 -0.00000000000E+00 -0.00000000000E+00 -0.13605011882E+03  0.13605011882E+03  0.00000000000E+00 0.  1.
         23    2    1    2    0    0 -0.69274032697E+02  0.36733428667E+02 -0.74159188880E+02  0.14199283316E+03  0.92272113801E+02 0.  0.
         23    2    1    2    0    0  0.69274032697E+02 -0.36733428667E+02  0.10294523069E+03  0.15889344629E+03  0.92201791547E+02 0.  0.
          5    1    3    3  502    0 -0.83765554629E+02  0.51879766552E+02 -0.53630586766E+02  0.11227870749E+03  0.47000000000E+01 0. -1.
         -5    1    3    3    0  502  0.14491521931E+02 -0.15146337885E+02 -0.20528602113E+02  0.29714125664E+02  0.47000000000E+01 0.  1.
          5    1    4    4  503    0  0.81381773416E+00 -0.48951651576E+02  0.57596600915E+02  0.75738926111E+02  0.47000000000E+01 0. -1.
         -5    1    4    4    0  503  0.68460214963E+02  0.12218222909E+02  0.45348629772E+02  0.83154520178E+02  0.47000000000E+01 0.  1.
<mgrwt>
<rscale>  0 0.12107492E+03</rscale>
<asrwt>0</asrwt>
<pdfrwt beam="1">  1        3 0.25359409E-01 0.12108831E+03</pdfrwt>
<pdfrwt beam="2">  1       -3 0.20930787E-01 0.12108831E+03</pdfrwt>
<totfact> 0.68847657E+02</totfact>
</mgrwt>
</event>
<event>
 8    1  0.1893090E-003  0.9310263E+02  0.7546771E-02  0.1296669E+00
         -1   -1    0    0    0  501 -0.00000000000E+00  0.00000000000E+00  0.23821037876E+02  0.23821037876E+02  0.00000000000E+00 0.  1.
          1   -1    0    0  501    0  0.00000000000E+00 -0.00000000000E+00 -0.52749115551E+03  0.52749115551E+03  0.00000000000E+00 0. -1.
         23    2    1    2    0    0  0.60281531589E+01  0.85571258294E+01 -0.40709400933E+03  0.41716658554E+03  0.90514444281E+02 0.  0.
         23    2    1    2    0    0 -0.60281531589E+01 -0.85571258294E+01 -0.96576108306E+02  0.13414560785E+03  0.92512357970E+02 0.  0.
          5    1    4    4  502    0 -0.44647781120E+02 -0.51422561059E+01 -0.79662199410E+02  0.91586151637E+02  0.47000000000E+01 0. -1.
         -5    1    4    4    0  502  0.38619627961E+02 -0.34148697236E+01 -0.16913908896E+02  0.42559456214E+02  0.47000000000E+01 0.  1.
          5    1    3    3  503    0 -0.10431489693E+02 -0.31313412597E+02 -0.72824190985E+02  0.80092437710E+02  0.47000000000E+01 0. -1.
         -5    1    3    3    0  503  0.16459642852E+02  0.39870538426E+02 -0.33426981834E+03  0.33707414783E+03  0.47000000000E+01 0.  1.
<mgrwt>
<rscale>  0 0.92602368E+02</rscale>
<asrwt>0</asrwt>
<pdfrwt beam="1">  1        1 0.81152485E-01 0.93102628E+02</pdfrwt>
<pdfrwt beam="2">  1       -1 0.36647751E-02 0.93102628E+02</pdfrwt>
<totfact> 0.10877443E+04</totfact>
</mgrwt>
</event>
<event>
 8    1  0.1893090E-003  0.1057040E+03  0.7546771E-02  0.1272294E+00
          1   -1    0    0  501    0  0.00000000000E+00  0.00000000000E+00  0.20841926850E+02  0.20841926850E+02  0.00000000000E+00 0. -1.
         -1   -1    0    0    0  501 -0.00000000000E+00 -0.00000000000E+00 -0.56903167687E+03  0.56903167687E+03  0.00000000000E+00 0.  1.
         23    2    1    2    0    0 -0.40455078466E+02  0.14193460660E+02 -0.38423854076E+03  0.39851298014E+03  0.96619208402E+02 0.  0.
         23    2    1    2    0    0  0.40455078466E+02 -0.14193460660E+02 -0.16395120926E+03  0.19136062359E+03  0.88886565586E+02 0.  0.
          5    1    4    4  502    0  0.60788191012E+02 -0.31000220799E+02 -0.92434033197E+02  0.11498851399E+03  0.47000000000E+01 0. -1.
         -5    1    4    4    0  502 -0.20333112546E+02  0.16806760139E+02 -0.71517176067E+02  0.76372109600E+02  0.47000000000E+01 0.  1.
          5    1    3    3  503    0 -0.46876451965E+02 -0.27332856945E+02 -0.13265677302E+03  0.14340291575E+03  0.47000000000E+01 0. -1.
         -5    1    3    3    0  503  0.64213734993E+01  0.41526317605E+02 -0.25158176774E+03  0.25511006439E+03  0.47000000000E+01 0.  1.
<mgrwt>
<rscale>  0 0.10390401E+03</rscale>
<asrwt>0</asrwt>
<pdfrwt beam="1">  1        1 0.32064503E-02 0.10570402E+03</pdfrwt>
<pdfrwt beam="2">  1       -1 0.87543336E-01 0.10570402E+03</pdfrwt>
<totfact> 0.39415283E+03</totfact>
</mgrwt>
</event>
<event>
 8    1  0.1893090E-003  0.1038779E+03  0.7546771E-02  0.1272970E+00
          1   -1    0    0  501    0  0.00000000000E+00  0.00000000000E+00  0.70510512857E+03  0.70510512857E+03  0.00000000000E+00 0. -1.
         -1   -1    0    0    0  501 -0.00000000000E+00 -0.00000000000E+00 -0.20058090544E+02  0.20058090544E+02  0.00000000000E+00 0.  1.
         23    2    1    2    0    0 -0.17388122908E+01 -0.48882870957E+02  0.16110059938E+03  0.19101858352E+03  0.90233794049E+02 0.  0.
         23    2    1    2    0    0  0.17388122908E+01  0.48882870957E+02  0.52394643864E+03  0.53414463559E+03  0.91640944032E+02 0.  0.
          5    1    4    4  502    0 -0.15060057263E+01  0.73288462238E+02  0.45263556565E+03  0.45855698887E+03  0.47000000000E+01 0. -1.
         -5    1    3    3    0  503 -0.22867370390E+02 -0.69098302931E+02  0.11097091925E+03  0.13279355035E+03  0.47000000000E+01 0.  1.
          5    1    3    3  503    0  0.21128558099E+02  0.20215431975E+02  0.50129680133E+02  0.58225033169E+02  0.47000000000E+01 0. -1.
         -5    1    4    4    0  502  0.32448180171E+01 -0.24405591282E+02  0.71310872994E+02  0.75587646722E+02  0.47000000000E+01 0.  1.
<mgrwt>
<rscale>  0 0.10356671E+03</rscale>
<asrwt>0</asrwt>
<pdfrwt beam="1">  1        1 0.10847769E+00 0.10387791E+03</pdfrwt>
<pdfrwt beam="2">  1       -1 0.30858606E-02 0.10387791E+03</pdfrwt>
<totfact> 0.94998764E+03</totfact>
</mgrwt>
</event>
<event>
 8    1  0.1893090E-003  0.9353962E+02  0.7546771E-02  0.1294619E+00
          3   -1    0    0  501    0  0.00000000000E+00  0.00000000000E+00  0.44772236291E+03  0.44772236291E+03  0.00000000000E+00 0. -1.
         -3   -1    0    0    0  501 -0.00000000000E+00 -0.00000000000E+00 -0.39102960928E+02  0.39102960928E+02  0.00000000000E+00 0.  1.
         23    2    1    2    0    0 -0.10437428359E+02 -0.20451289937E+02  0.37654462070E+03  0.38793926345E+03  0.90464499008E+02 0.  0.
         23    2    1    2    0    0  0.10437428359E+02  0.20451289937E+02  0.32074781280E+02  0.98886060382E+02  0.90677815219E+02 0.  0.
          5    1    3    3  502    0  0.12007387331E+01 -0.47564982750E+02  0.32387733628E+03  0.32738736737E+03  0.47000000000E+01 0. -1.
         -5    1    3    3    0  502 -0.11638167092E+02  0.27113692813E+02  0.52667284415E+02  0.60551896080E+02  0.47000000000E+01 0.  1.
          5    1    4    4  503    0  0.10981821770E+02 -0.24947852472E+02  0.43760097213E+02  0.51769024141E+02  0.47000000000E+01 0. -1.
         -5    1    4    4    0  503 -0.54439341125E+00  0.45399142410E+02 -0.11685315933E+02  0.47117036241E+02  0.47000000000E+01 0.  1.
<mgrwt>
<rscale>  0 0.93487888E+02</rscale>
<asrwt>0</asrwt>
<pdfrwt beam="1">  1        3 0.68880360E-01 0.93539624E+02</pdfrwt>
<pdfrwt beam="2">  1       -3 0.60158405E-02 0.93539624E+02</pdfrwt>
<totfact> 0.75926019E+02</totfact>
</mgrwt>
</event>
<event>
 8    1  0.1893090E-003  0.1787036E+03  0.7546771E-02  0.1169599E+00
         -1   -1    0    0    0  501 -0.00000000000E+00  0.00000000000E+00  0.89358593072E+02  0.89358593072E+02  0.00000000000E+00 0.  1.
          1   -1    0    0  501    0  0.00000000000E+00 -0.00000000000E+00 -0.38969626705E+03  0.38969626705E+03  0.00000000000E+00 0. -1.
         23    2    1    2    0    0 -0.14293050120E+03 -0.49486282571E+02 -0.75872035691E+02  0.19214061850E+03  0.91013356940E+02 0.  0.
         23    2    1    2    0    0  0.14293050120E+03  0.49486282571E+02 -0.22446563828E+03  0.28691424162E+03  0.95167951219E+02 0.  0.
          5    1    4    4  502    0  0.12213306353E+03  0.11574196942E+01 -0.12834531996E+03  0.17723553815E+03  0.47000000000E+01 0. -1.
         -5    1    3    3    0  503 -0.88286519515E+02  0.16965871921E+02 -0.32814077537E+02  0.95818599565E+02  0.47000000000E+01 0.  1.
          5    1    3    3  503    0 -0.54643981683E+02 -0.66452154493E+02 -0.43057958154E+02  0.96322018933E+02  0.47000000000E+01 0. -1.
         -5    1    4    4    0  502  0.20797437668E+02  0.48328862877E+02 -0.96120318320E+02  0.10967870347E+03  0.47000000000E+01 0.  1.
<mgrwt>
<rscale>  0 0.17815667E+03</rscale>
<asrwt>0</asrwt>
<pdfrwt beam="1">  1        1 0.59953271E-01 0.17870355E+03</pdfrwt>
<pdfrwt beam="2">  1       -1 0.13747476E-01 0.17870355E+03</pdfrwt>
<totfact> 0.22827493E+03</totfact>
</mgrwt>
</event>
<event>
 8    1  0.1893090E-003  0.1071132E+03  0.7546771E-02  0.1273421E+00
          1   -1    0    0  501    0  0.00000000000E+00  0.00000000000E+00  0.52316591306E+03  0.52316591306E+03  0.00000000000E+00 0. -1.
         -1   -1    0    0    0  501 -0.00000000000E+00 -0.00000000000E+00 -0.19289211241E+02  0.19289211241E+02  0.00000000000E+00 0.  1.
         23    2    1    2    0    0  0.16861607734E+02  0.19327510269E+01  0.24293996819E+03  0.26550529212E+03  0.10576002390E+03 0.  0.
         23    2    1    2    0    0 -0.16861607734E+02 -0.19327510269E+01  0.26093673363E+03  0.27694983219E+03  0.91242431190E+02 0.  0.
          5    1    3    3  502    0 -0.31190004129E+01  0.51856529028E+02  0.10158727329E+03  0.11419672439E+03  0.47000000000E+01 0. -1.
         -5    1    3    3    0  502  0.19980608147E+02 -0.49923778001E+02  0.14135269490E+03  0.15130856773E+03  0.47000000000E+01 0.  1.
          5    1    4    4  503    0 -0.54439388235E+02 -0.24663085931E+01  0.16375646721E+03  0.17264993549E+03  0.47000000000E+01 0. -1.
         -5    1    4    4    0  503  0.37577780500E+02  0.53355756615E+00  0.97180266415E+02  0.10429989670E+03  0.47000000000E+01 0.  1.
<mgrwt>
<rscale>  0 0.10334225E+03</rscale>
<asrwt>0</asrwt>
<pdfrwt beam="1">  1        1 0.80487053E-01 0.10711317E+03</pdfrwt>
<pdfrwt beam="2">  1       -1 0.29675714E-02 0.10711317E+03</pdfrwt>
<totfact> 0.15102250E+04</totfact>
</mgrwt>
</event>
<event>
 8    1  0.1893090E-003  0.9174217E+02  0.7546771E-02  0.1298705E+00
          1   -1    0    0  501    0  0.00000000000E+00  0.00000000000E+00  0.12932224341E+03  0.12932224341E+03  0.00000000000E+00 0. -1.
         -1   -1    0    0    0  501 -0.00000000000E+00 -0.00000000000E+00 -0.70888042165E+02  0.70888042165E+02  0.00000000000E+00 0.  1.
         23    2    1    2    0    0 -0.99132384865E+01  0.16630474882E+02  0.57924011936E+02  0.10849800198E+03  0.89675973833E+02 0.  0.
         23    2    1    2    0    0  0.99132384865E+01 -0.16630474882E+02  0.51018930800E+00  0.91712283594E+02  0.89643949471E+02 0.  0.
          5    1    4    4  502    0 -0.39336825833E+02 -0.59299570921E+01 -0.65984413659E+01  0.40597779326E+02  0.47000000000E+01 0. -1.
         -5    1    3    3    0  503  0.91329582251E+01  0.45607725305E+02  0.78440090803E+01  0.47403523201E+02  0.47000000000E+01 0.  1.
          5    1    3    3  503    0 -0.19046196712E+02 -0.28977250423E+02  0.50080002856E+02  0.61094478779E+02  0.47000000000E+01 0. -1.
         -5    1    4    4    0  502  0.49250064320E+02 -0.10700517790E+02  0.71086306738E+01  0.51114504268E+02  0.47000000000E+01 0.  1.
<mgrwt>
<rscale>  0 0.91734341E+02</rscale>
<asrwt>0</asrwt>
<pdfrwt beam="1">  1        1 0.19895730E-01 0.91742167E+02</pdfrwt>
<pdfrwt beam="2">  1       -1 0.10905853E-01 0.91742167E+02</pdfrwt>
<totfact> 0.12350545E+04</totfact>
</mgrwt>
</event>
<event>
 8    1  0.1893090E-003  0.1029587E+03  0.7546771E-02  0.1277383E+00
          1   -1    0    0  501    0  0.00000000000E+00  0.00000000000E+00  0.10457482753E+03  0.10457482753E+03  0.00000000000E+00 0. -1.
         -1   -1    0    0    0  501 -0.00000000000E+00 -0.00000000000E+00 -0.13678525222E+03  0.13678525222E+03  0.00000000000E+00 0.  1.
         23    2    1    2    0    0 -0.83991920338E+01 -0.47236940007E+02 -0.82768261401E+02  0.13210254489E+03  0.91096774597E+02 0.  0.
         23    2    1    2    0    0  0.83991920338E+01  0.47236940007E+02  0.50557836705E+02  0.10925753486E+03  0.84138214524E+02 0.  0.
          5    1    4    4  502    0  0.38965817077E+02  0.43799553659E+02  0.12547952462E+02  0.60135487960E+02  0.47000000000E+01 0. -1.
         -5    1    4    4    0  502 -0.30566625043E+02  0.34373863474E+01  0.38009884244E+02  0.49122046900E+02  0.47000000000E+01 0.  1.
          5    1    3    3  503    0 -0.27957019074E+02 -0.39799545150E+02 -0.24007545134E+01  0.48922922356E+02  0.47000000000E+01 0. -1.
         -5    1    3    3    0  503  0.19557827040E+02 -0.74373948569E+01 -0.80367506888E+02  0.83179622530E+02  0.47000000000E+01 0.  1.
<mgrwt>
<rscale>  0 0.10139794E+03</rscale>
<asrwt>0</asrwt>
<pdfrwt beam="1">  1        1 0.16088435E-01 0.10295872E+03</pdfrwt>
<pdfrwt beam="2">  1       -1 0.21043885E-01 0.10295872E+03</pdfrwt>
<totfact> 0.58704070E+03</totfact>
</mgrwt>
</event>
<event>
 8    1  0.1893090E-003  0.9861355E+02  0.7546771E-02  0.1284855E+00
          1   -1    0    0  501    0  0.00000000000E+00  0.00000000000E+00  0.38323770938E+02  0.38323770938E+02  0.00000000000E+00 0. -1.
         -1   -1    0    0    0  501 -0.00000000000E+00 -0.00000000000E+00 -0.24680913152E+03  0.24680913152E+03  0.00000000000E+00 0.  1.
         23    2    1    2    0    0 -0.13054237877E+02  0.33884491724E+02 -0.10991914012E+03  0.14570574726E+03  0.88483758472E+02 0.  0.
         23    2    1    2    0    0  0.13054237877E+02 -0.33884491724E+02 -0.98566220466E+02  0.13942715520E+03  0.91684567323E+02 0.  0.
          5    1    4    4  502    0  0.43784467801E+02  0.27538470421E+01 -0.22685346036E+02  0.49612278913E+02  0.47000000000E+01 0. -1.
         -5    1    4    4    0  502 -0.30730229924E+02 -0.36638338766E+02 -0.75880874430E+02  0.89814876290E+02  0.47000000000E+01 0.  1.
          5    1    3    3  503    0 -0.77475453405E+01 -0.26231786282E+02 -0.63899520570E+02  0.69666130934E+02  0.47000000000E+01 0. -1.
         -5    1    3    3    0  503 -0.53066925366E+01  0.60116278006E+02 -0.46019619548E+02  0.76039616322E+02  0.47000000000E+01 0.  1.
<mgrwt>
<rscale>  0 0.97862858E+02</rscale>
<asrwt>0</asrwt>
<pdfrwt beam="1">  1        1 0.58959647E-02 0.98613548E+02</pdfrwt>
<pdfrwt beam="2">  1       -1 0.37970636E-01 0.98613548E+02</pdfrwt>
<totfact> 0.82326559E+03</totfact>
</mgrwt>
</event>
<event>
 8    1  0.1893090E-003  0.1155722E+03  0.7546771E-02  0.1250985E+00
         -3   -1    0    0    0  501 -0.00000000000E+00  0.00000000000E+00  0.27417876624E+02  0.27417876624E+02  0.00000000000E+00 0.  1.
          3   -1    0    0  501    0  0.00000000000E+00 -0.00000000000E+00 -0.61896035806E+03  0.61896035806E+03  0.00000000000E+00 0. -1.
         23    2    1    2    0    0  0.64668676148E+02  0.33675774994E+02 -0.14354470314E+03  0.18371318402E+03  0.88483652096E+02 0.  0.
         23    2    1    2    0    0 -0.64668676148E+02 -0.33675774994E+02 -0.44799777830E+03  0.46266505066E+03  0.89670754702E+02 0.  0.
          5    1    3    3  502    0  0.69920252914E+02  0.86450871413E+01 -0.49737167530E+02  0.86368137256E+02  0.47000000000E+01 0. -1.
         -5    1    4    4    0  503 -0.65126040883E+02 -0.55661652165E+02 -0.40659795291E+03  0.41555217005E+03  0.47000000000E+01 0.  1.
          5    1    4    4  503    0  0.45736473455E+00  0.21985877172E+02 -0.41399825391E+02  0.47112880616E+02  0.47000000000E+01 0. -1.
         -5    1    3    3    0  502 -0.52515767657E+01  0.25030687852E+02 -0.93807535610E+02  0.97345046767E+02  0.47000000000E+01 0.  1.
<mgrwt>
<rscale>  0 0.11534189E+03</rscale>
<asrwt>0</asrwt>
<pdfrwt beam="1">  1        3 0.95224669E-01 0.11557223E+03</pdfrwt>
<pdfrwt beam="2">  1       -3 0.42181349E-02 0.11557223E+03</pdfrwt>
<totfact> 0.68317403E+02</totfact>
</mgrwt>
</event>
<event>
 8    1  0.1893090E-003  0.9652288E+02  0.7546771E-02  0.1289304E+00
          1   -1    0    0  501    0  0.00000000000E+00  0.00000000000E+00  0.44565227774E+02  0.44565227774E+02  0.00000000000E+00 0. -1.
         -1   -1    0    0    0  501 -0.00000000000E+00 -0.00000000000E+00 -0.21344873503E+03  0.21344873503E+03  0.00000000000E+00 0.  1.
         23    2    1    2    0    0 -0.19084359749E+02 -0.50599200484E+01 -0.57339305947E+02  0.11226959300E+03  0.94482008494E+02 0.  0.
         23    2    1    2    0    0  0.19084359749E+02  0.50599200484E+01 -0.11154420131E+03  0.14574436980E+03  0.91703309128E+02 0.  0.
          5    1    4    4  502    0  0.16331010922E+02 -0.36020036542E+02 -0.18551307767E+02  0.43936157889E+02  0.47000000000E+01 0. -1.
         -5    1    4    4    0  502  0.27533488273E+01  0.41079956590E+02 -0.92992893547E+02  0.10180821192E+03  0.47000000000E+01 0.  1.
          5    1    3    3  503    0  0.25701380154E+02 -0.28182290844E+02 -0.38471978727E+01  0.38622446718E+02  0.47000000000E+01 0. -1.
         -5    1    3    3    0  503 -0.44785739903E+02  0.23122370795E+02 -0.53492108074E+02  0.73647146286E+02  0.47000000000E+01 0.  1.
<mgrwt>
<rscale>  0 0.95836023E+02</rscale>
<asrwt>0</asrwt>
<pdfrwt beam="1">  1        1 0.68561889E-02 0.96522876E+02</pdfrwt>
<pdfrwt beam="2">  1       -1 0.32838267E-01 0.96522876E+02</pdfrwt>
<totfact> 0.85948238E+03</totfact>
</mgrwt>
</event>
<event>
 8    1  0.1893090E-003  0.1212660E+03  0.7546771E-02  0.1247553E+00
         -1   -1    0    0    0  501 -0.00000000000E+00  0.00000000000E+00  0.41220171641E+03  0.41220171641E+03  0.00000000000E+00 0.  1.
          1   -1    0    0  501    0  0.00000000000E+00 -0.00000000000E+00 -0.33175001658E+02  0.33175001658E+02  0.00000000000E+00 0. -1.
         23    2    1    2    0    0 -0.25619735914E+02  0.41958140903E+02  0.25258410376E+03  0.28018596871E+03  0.11085391800E+03 0.  0.
         23    2    1    2    0    0  0.25619735914E+02 -0.41958140903E+02  0.12644261099E+03  0.16519074936E+03  0.94251755111E+02 0.  0.
          5    1    4    4  502    0  0.48910845553E+02 -0.82936927017E+01  0.25108643671E+02  0.55799553209E+02  0.47000000000E+01 0. -1.
         -5    1    3    3    0  503 -0.30837230122E+02  0.71016477175E+02  0.22997824633E+03  0.24270632166E+03  0.47000000000E+01 0.  1.
          5    1    3    3  503    0  0.52174942086E+01 -0.29058336271E+02  0.22605857433E+02  0.37479647049E+02  0.47000000000E+01 0. -1.
         -5    1    4    4    0  502 -0.23291109640E+02 -0.33664448202E+02  0.10133396732E+03  0.10939119615E+03  0.47000000000E+01 0.  1.
<mgrwt>
<rscale>  0 0.11733845E+03</rscale>
<asrwt>0</asrwt>
<pdfrwt beam="1">  1        1 0.51038467E-02 0.12126602E+03</pdfrwt>
<pdfrwt beam="2">  1       -1 0.63415645E-01 0.12126602E+03</pdfrwt>
<totfact> 0.40142655E+03</totfact>
</mgrwt>
</event>
<event>
 8    1  0.1893090E-003  0.9483930E+02  0.7546771E-02  0.1294832E+00
          2   -1    0    0  501    0  0.00000000000E+00  0.00000000000E+00  0.56875972090E+03  0.56875972090E+03  0.00000000000E+00 0. -1.
         -2   -1    0    0    0  501 -0.00000000000E+00 -0.00000000000E+00 -0.17886860764E+02  0.17886860764E+02  0.00000000000E+00 0.  1.
         23    2    1    2    0    0  0.40979743565E+01  0.10105285316E+02  0.14832171615E+03  0.17307443903E+03  0.88524119754E+02 0.  0.
         23    2    1    2    0    0 -0.40979743565E+01 -0.10105285316E+02  0.40255114399E+03  0.41357214264E+03  0.94210315011E+02 0.  0.
          5    1    4    4  502    0 -0.66204287332E+00  0.35582652880E+02  0.28610696303E+03  0.28835021724E+03  0.47000000000E+01 0. -1.
         -5    1    4    4    0  502 -0.34359314832E+01 -0.45687938197E+02  0.11644418096E+03  0.12522192540E+03  0.47000000000E+01 0.  1.
          5    1    3    3  503    0 -0.41689648421E+02  0.65652466615E+01  0.61389699341E+02  0.74645257279E+02  0.47000000000E+01 0. -1.
         -5    1    3    3    0  503  0.45787622777E+02  0.35400386546E+01  0.86932016807E+02  0.98429181747E+02  0.47000000000E+01 0.  1.
<mgrwt>
<rscale>  0 0.93395129E+02</rscale>
<asrwt>0</asrwt>
<pdfrwt beam="1">  1        2 0.87501482E-01 0.94839304E+02</pdfrwt>
<pdfrwt beam="2">  1       -2 0.27518252E-02 0.94839304E+02</pdfrwt>
<totfact> 0.23500788E+04</totfact>
</mgrwt>
</event>
<event>
 8    1  0.1893090E-003  0.9557711E+02  0.7546771E-02  0.1290967E+00
          2   -1    0    0  501    0  0.00000000000E+00  0.00000000000E+00  0.36757298318E+03  0.36757298318E+03  0.00000000000E+00 0. -1.
         -2   -1    0    0    0  501 -0.00000000000E+00 -0.00000000000E+00 -0.11018167056E+03  0.11018167056E+03  0.00000000000E+00 0.  1.
         23    2    1    2    0    0  0.16595194508E+02 -0.11349522545E+02  0.33981165231E+03  0.35299708600E+03  0.93438597666E+02 0.  0.
         23    2    1    2    0    0 -0.16595194508E+02  0.11349522545E+02 -0.82420339690E+02  0.12475756775E+03  0.91471996661E+02 0.  0.
          5    1    3    3  502    0 -0.37668795715E+02 -0.12990733902E+02  0.16932706445E+03  0.17401563749E+03  0.47000000000E+01 0. -1.
         -5    1    4    4    0  503  0.25146340351E+02  0.31838942196E+02 -0.16726336248E+02  0.44135212671E+02  0.47000000000E+01 0.  1.
          5    1    4    4  503    0 -0.41741534859E+02 -0.20489419651E+02 -0.65694003442E+02  0.80622355078E+02  0.47000000000E+01 0. -1.
         -5    1    3    3    0  502  0.54263990223E+02  0.16412113569E+01  0.17048458786E+03  0.17898144850E+03  0.47000000000E+01 0.  1.
<mgrwt>
<rscale>  0 0.95093022E+02</rscale>
<asrwt>0</asrwt>
<pdfrwt beam="1">  1        2 0.56549689E-01 0.95577109E+02</pdfrwt>
<pdfrwt beam="2">  1       -2 0.16951026E-01 0.95577109E+02</pdfrwt>
<totfact> 0.23472272E+03</totfact>
</mgrwt>
</event>
<event>
 8    1  0.1893090E-003  0.2485296E+03  0.7546771E-02  0.1114267E+00
          1   -1    0    0  501    0  0.00000000000E+00  0.00000000000E+00  0.15693950961E+03  0.15693950961E+03  0.00000000000E+00 0. -1.
         -1   -1    0    0    0  501 -0.00000000000E+00 -0.00000000000E+00 -0.45208021222E+03  0.45208021222E+03  0.00000000000E+00 0.  1.
         23    2    1    2    0    0  0.11709425242E+03 -0.19897119145E+03 -0.37799000343E+02  0.25138755599E+03  0.92012715992E+02 0.  0.
         23    2    1    2    0    0 -0.11709425242E+03  0.19897119145E+03 -0.25734170227E+03  0.35763216583E+03  0.91517295250E+02 0.  0.
          5    1    4    4  502    0 -0.65827002669E+02  0.31573972060E+02 -0.79211725827E+02  0.10782716495E+03  0.47000000000E+01 0. -1.
         -5    1    3    3    0  503 -0.88164042231E+01 -0.40947735771E+02 -0.24709086961E+02  0.48857701815E+02  0.47000000000E+01 0.  1.
          5    1    3    3  503    0  0.12591065664E+03 -0.15802345568E+03 -0.13089913382E+02  0.20252985418E+03  0.47000000000E+01 0. -1.
         -5    1    4    4    0  502 -0.51267249749E+02  0.16739721939E+03 -0.17812997644E+03  0.24980500088E+03  0.47000000000E+01 0.  1.
<mgrwt>
<rscale>  0 0.24848379E+03</rscale>
<asrwt>0</asrwt>
<pdfrwt beam="1">  1        1 0.24144541E-01 0.24852955E+03</pdfrwt>
<pdfrwt beam="2">  1       -1 0.69550800E-01 0.24852955E+03</pdfrwt>
<totfact> 0.43641057E+02</totfact>
</mgrwt>
</event>
<event>
 8    1  0.1893090E-003  0.9738191E+02  0.7546771E-02  0.1288396E+00
          2   -1    0    0  501    0  0.00000000000E+00  0.00000000000E+00  0.27950038224E+03  0.27950038224E+03  0.00000000000E+00 0. -1.
         -2   -1    0    0    0  501 -0.00000000000E+00 -0.00000000000E+00 -0.51797638148E+02  0.51797638148E+02  0.00000000000E+00 0.  1.
         23    2    1    2    0    0  0.26870454069E+02  0.16283240260E+02  0.10802000391E+02  0.93539382357E+02  0.87440080193E+02 0.  0.
         23    2    1    2    0    0 -0.26870454069E+02 -0.16283240260E+02  0.21690074370E+03  0.23775863803E+03  0.92174140215E+02 0.  0.
          5    1    4    4  502    0  0.23639447559E+02 -0.13732843731E+02  0.15604550853E+03  0.15849197206E+03  0.47000000000E+01 0. -1.
         -5    1    4    4    0  502 -0.50509901628E+02 -0.25503965290E+01  0.60855235173E+02  0.79266665963E+02  0.47000000000E+01 0.  1.
          5    1    3    3  503    0  0.16684689909E+02 -0.35457794212E+02 -0.18399824811E+00  0.39468441863E+02  0.47000000000E+01 0. -1.
         -5    1    3    3    0  503  0.10185764160E+02  0.51741034473E+02  0.10985998639E+02  0.54070940494E+02  0.47000000000E+01 0.  1.
<mgrwt>
<rscale>  0 0.96245078E+02</rscale>
<asrwt>0</asrwt>
<pdfrwt beam="1">  1        2 0.43000058E-01 0.97381915E+02</pdfrwt>
<pdfrwt beam="2">  1       -2 0.79688675E-02 0.97381915E+02</pdfrwt>
<totfact> 0.10329830E+04</totfact>
</mgrwt>
</event>
<event>
 8    1  0.1893090E-003  0.9796180E+02  0.7546771E-02  0.1288161E+00
         -2   -1    0    0    0  501 -0.00000000000E+00  0.00000000000E+00  0.13003939096E+03  0.13003939096E+03  0.00000000000E+00 0.  1.
          2   -1    0    0  501    0  0.00000000000E+00 -0.00000000000E+00 -0.69839059285E+02  0.69839059285E+02  0.00000000000E+00 0. -1.
         23    2    1    2    0    0 -0.18651881671E+02 -0.10541577355E+02  0.41085306622E+02  0.10622860499E+03  0.95590253447E+02 0.  0.
         23    2    1    2    0    0  0.18651881671E+02  0.10541577355E+02  0.19115025049E+02  0.93649845255E+02  0.89139731830E+02 0.  0.
          5    1    4    4  502    0 -0.20148420508E+01  0.47549639167E+02  0.17651399166E+02  0.50977344634E+02  0.47000000000E+01 0. -1.
         -5    1    3    3    0  503 -0.21815641119E+02  0.35683962461E+02 -0.28760432195E+01  0.42185649206E+02  0.47000000000E+01 0. -1.
          5    1    3    3  503    0  0.31637594477E+01 -0.46225539816E+02  0.43961349841E+02  0.64042955779E+02  0.47000000000E+01 0.  1.
         -5    1    4    4    0  502  0.20666723722E+02 -0.37008061813E+02  0.14636258833E+01  0.42672500621E+02  0.47000000000E+01 0.  1.
<mgrwt>
<rscale>  0 0.96351658E+02</rscale>
<asrwt>0</asrwt>
<pdfrwt beam="1">  1        2 0.10744471E-01 0.97961799E+02</pdfrwt>
<pdfrwt beam="2">  1       -2 0.20006060E-01 0.97961799E+02</pdfrwt>
<totfact> 0.11173176E+04</totfact>
</mgrwt>
</event>
<event>
 8    1  0.1893090E-003  0.1828005E+03  0.7546771E-02  0.1165237E+00
         -2   -1    0    0    0  501 -0.00000000000E+00  0.00000000000E+00  0.12005162391E+03  0.12005162391E+03  0.00000000000E+00 0.  1.
          2   -1    0    0  501    0  0.00000000000E+00 -0.00000000000E+00 -0.30991901804E+03  0.30991901804E+03  0.00000000000E+00 0. -1.
         23    2    1    2    0    0 -0.89519303455E+02  0.13131804505E+03 -0.16448019092E+03  0.24590601380E+03  0.90321092604E+02 0.  0.
         23    2    1    2    0    0  0.89519303455E+02 -0.13131804505E+03 -0.25387203197E+02  0.18406462815E+03  0.89314850964E+02 0.  0.
          5    1    3    3  502    0 -0.83392961010E+02  0.88299074458E+02 -0.16145996913E+03  0.20209533425E+03  0.47000000000E+01 0. -1.
         -5    1    4    4    0  503  0.99021918328E+02 -0.86989680219E+02 -0.37095779896E+02  0.13700631978E+03  0.47000000000E+01 0.  1.
          5    1    4    4  503    0 -0.95026148735E+01 -0.44328364833E+02  0.11708576699E+02  0.47058308368E+02  0.47000000000E+01 0. -1.
         -5    1    3    3    0  502 -0.61263424451E+01  0.43018970594E+02 -0.30202217969E+01  0.43810679547E+02  0.47000000000E+01 0.  1.
<mgrwt>
<rscale>  0 0.18267664E+03</rscale>
<asrwt>0</asrwt>
<pdfrwt beam="1">  1        2 0.47679848E-01 0.18280053E+03</pdfrwt>
<pdfrwt beam="2">  1       -2 0.18469481E-01 0.18280053E+03</pdfrwt>
<totfact> 0.25020754E+03</totfact>
</mgrwt>
</event>
<event>
 8    1  0.1893090E-003  0.9957417E+02  0.7546771E-02  0.1281467E+00
         -1   -1    0    0    0  501 -0.00000000000E+00  0.00000000000E+00  0.39955276693E+03  0.39955276693E+03  0.00000000000E+00 0.  1.
          1   -1    0    0  501    0  0.00000000000E+00 -0.00000000000E+00 -0.29029101711E+02  0.29029101711E+02  0.00000000000E+00 0. -1.
         23    2    1    2    0    0  0.28571866945E+02  0.25777960861E+02  0.26773005043E+03  0.28546812953E+03  0.91278793969E+02 0.  0.
         23    2    1    2    0    0 -0.28571866945E+02 -0.25777960861E+02  0.10279361479E+03  0.14311373911E+03  0.91837684170E+02 0.  0.
          5    1    3    3  502    0  0.57518291843E+02  0.24814510679E+02  0.22520973768E+03  0.23380682151E+03  0.47000000000E+01 0. -1.
         -5    1    4    4    0  503 -0.56090707998E+02 -0.27976811535E+02  0.40390338703E+02  0.74715051816E+02  0.47000000000E+01 0.  1.
          5    1    4    4  503    0  0.27518841053E+02  0.21988506736E+01  0.62403276089E+02  0.68398687296E+02  0.47000000000E+01 0. -1.
         -5    1    3    3    0  502 -0.28946424898E+02  0.96345018159E+00  0.42520312752E+02  0.51661308028E+02  0.47000000000E+01 0.  1.
<mgrwt>
<rscale>  0 0.99445110E+02</rscale>
<asrwt>0</asrwt>
<pdfrwt beam="1">  1        1 0.44660160E-02 0.99574169E+02</pdfrwt>
<pdfrwt beam="2">  1       -1 0.61469652E-01 0.99574169E+02</pdfrwt>
<totfact> 0.50360353E+03</totfact>
</mgrwt>
</event>
<event>
 8    1  0.1893090E-003  0.1111038E+03  0.7546771E-02  0.1264890E+00
          2   -1    0    0  501    0  0.00000000000E+00  0.00000000000E+00  0.92596216632E+03  0.92596216632E+03  0.00000000000E+00 0. -1.
         -2   -1    0    0    0  501 -0.00000000000E+00 -0.00000000000E+00 -0.12497955451E+02  0.12497955451E+02  0.00000000000E+00 0.  1.
         23    2    1    2    0    0 -0.10865062126E+02  0.38661830762E+02  0.53926612578E+03  0.54811633664E+03  0.89502946027E+02 0.  0.
         23    2    1    2    0    0  0.10865062126E+02 -0.38661830762E+02  0.37419808509E+03  0.39034378513E+03  0.10359187695E+03 0.  0.
          5    1    4    4  502    0  0.47432354539E+02 -0.19823584574E+01  0.26662214199E+03  0.27085644648E+03  0.47000000000E+01 0. -1.
         -5    1    4    4    0  502 -0.36567292413E+02 -0.36679472304E+02  0.10757594311E+03  0.11948733865E+03  0.47000000000E+01 0.  1.
          5    1    3    3  503    0  0.20020157297E+02 -0.20717689944E+02  0.11900925490E+03  0.12253702349E+03  0.47000000000E+01 0. -1.
         -5    1    3    3    0  503 -0.30885219424E+02  0.59379520706E+02  0.42025687088E+03  0.42557931314E+03  0.47000000000E+01 0.  1.
<mgrwt>
<rscale>  0 0.10769953E+03</rscale>
<asrwt>0</asrwt>
<pdfrwt beam="1">  1        2 0.14245566E+00 0.11110384E+03</pdfrwt>
<pdfrwt beam="2">  1       -2 0.19227631E-02 0.11110384E+03</pdfrwt>
<totfact> 0.22383100E+04</totfact>
</mgrwt>
</event>
<event>
 8    1  0.1893090E-003  0.9675704E+02  0.7546771E-02  0.1288805E+00
         -3   -1    0    0    0  501 -0.00000000000E+00  0.00000000000E+00  0.32314231850E+02  0.32314231850E+02  0.00000000000E+00 0.  1.
          3   -1    0    0  501    0  0.00000000000E+00 -0.00000000000E+00 -0.33350518030E+03  0.33350518030E+03  0.00000000000E+00 0. -1.
         23    2    1    2    0    0 -0.12110486518E+02  0.24059586364E+02 -0.22096634132E+03  0.24012966277E+03  0.90058888316E+02 0.  0.
         23    2    1    2    0    0  0.12110486518E+02 -0.24059586364E+02 -0.80224607128E+02  0.12568974938E+03  0.92932222242E+02 0.  0.
          5    1    4    4  502    0  0.48313767083E+02 -0.10321432473E+02 -0.69199272732E+02  0.85155043331E+02  0.47000000000E+01 0. -1.
         -5    1    4    4    0  502 -0.36203280565E+02 -0.13738153891E+02 -0.11025334397E+02  0.40534706050E+02  0.47000000000E+01 0.  1.
          5    1    3    3  503    0  0.37318853431E+02  0.17442620196E+02 -0.73495468863E+02  0.84383741112E+02  0.47000000000E+01 0. -1.
         -5    1    3    3    0  503 -0.49429339949E+02  0.66169661678E+01 -0.14747087246E+03  0.15574592166E+03  0.47000000000E+01 0.  1.
<mgrwt>
<rscale>  0 0.96060471E+02</rscale>
<asrwt>0</asrwt>
<pdfrwt beam="1">  1        3 0.51308489E-01 0.96757044E+02</pdfrwt>
<pdfrwt beam="2">  1       -3 0.49714204E-02 0.96757044E+02</pdfrwt>
<totfact> 0.18809132E+03</totfact>
</mgrwt>
</event>
<event>
 8    1  0.1893090E-003  0.1079175E+03  0.7546771E-02  0.1267323E+00
         -1   -1    0    0    0  501 -0.00000000000E+00  0.00000000000E+00  0.25811411864E+03  0.25811411864E+03  0.00000000000E+00 0.  1.
          1   -1    0    0  501    0  0.00000000000E+00 -0.00000000000E+00 -0.65299472555E+02  0.65299472555E+02  0.00000000000E+00 0. -1.
         23    2    1    2    0    0  0.23339957438E+02  0.37008714488E+02  0.18972436155E+03  0.21545182021E+03  0.92248332799E+02 0.  0.
         23    2    1    2    0    0 -0.23339957438E+02 -0.37008714488E+02  0.30902845314E+01  0.10796177098E+03  0.98649863528E+02 0.  0.
          5    1    4    4  502    0  0.24585023871E+02 -0.16264516700E+02 -0.32855316824E+02  0.44390536670E+02  0.47000000000E+01 0. -1.
         -5    1    4    4    0  502 -0.47924981309E+02 -0.20744197788E+02  0.35945601356E+02  0.63571234313E+02  0.47000000000E+01 0.  1.
          5    1    3    3  503    0 -0.93431203710E+01 -0.23872824549E+02  0.92359086443E+02  0.95966121620E+02  0.47000000000E+01 0. -1.
         -5    1    3    3    0  503  0.32683077809E+02  0.60881539037E+02  0.97365275111E+02  0.11948569859E+03  0.47000000000E+01 0.  1.
<mgrwt>
<rscale>  0 0.10643246E+03</rscale>
<asrwt>0</asrwt>
<pdfrwt beam="1">  1        1 0.10046073E-01 0.10791753E+03</pdfrwt>
<pdfrwt beam="2">  1       -1 0.39709864E-01 0.10791753E+03</pdfrwt>
<totfact> 0.37724612E+03</totfact>
</mgrwt>
</event>
<event>
 8    1  0.1893090E-003  0.1547377E+03  0.7546771E-02  0.1195027E+00
         -1   -1    0    0    0  501 -0.00000000000E+00  0.00000000000E+00  0.52090906992E+02  0.52090906992E+02  0.00000000000E+00 0.  1.
          1   -1    0    0  501    0  0.00000000000E+00 -0.00000000000E+00 -0.73523168005E+03  0.73523168005E+03  0.00000000000E+00 0. -1.
         23    2    1    2    0    0 -0.10890924810E+03 -0.61127778321E+02 -0.10003379809E+03  0.18425668965E+03  0.91356101686E+02 0.  0.
         23    2    1    2    0    0  0.10890924810E+03  0.61127778321E+02 -0.58310697497E+03  0.60306589739E+03  0.89871590263E+02 0.  0.
          5    1    3    3  502    0  0.79155103310E+01 -0.33204607127E+02 -0.19953022688E+02  0.39817261993E+02  0.47000000000E+01 0. -1.
         -5    1    3    3    0  502 -0.11682475843E+03 -0.27923171195E+02 -0.80080775401E+02  0.14443942766E+03  0.47000000000E+01 0.  1.
          5    1    4    4  503    0  0.37178887216E+02  0.64131948566E+02 -0.20192289469E+03  0.21515139294E+03  0.47000000000E+01 0. -1.
         -5    1    4    4    0  503  0.71730360886E+02 -0.30041702446E+01 -0.38118408028E+03  0.38791450446E+03  0.47000000000E+01 0.  1.
<mgrwt>
<rscale>  0 0.15451933E+03</rscale>
<asrwt>0</asrwt>
<pdfrwt beam="1">  1        1 0.11311256E+00 0.15473774E+03</pdfrwt>
<pdfrwt beam="2">  1       -1 0.80139860E-02 0.15473774E+03</pdfrwt>
<totfact> 0.22237467E+03</totfact>
</mgrwt>
</event>
<event>
 8    1  0.1893090E-003  0.9876564E+02  0.7546771E-02  0.1284683E+00
          2   -1    0    0  501    0  0.00000000000E+00  0.00000000000E+00  0.18444370008E+03  0.18444370008E+03  0.00000000000E+00 0. -1.
         -2   -1    0    0    0  501 -0.00000000000E+00 -0.00000000000E+00 -0.13751788143E+03  0.13751788143E+03  0.00000000000E+00 0.  1.
         23    2    1    2    0    0  0.27529724970E+02  0.20822210128E+02 -0.10424572664E+03  0.14138614834E+03  0.89058526978E+02 0.  0.
         23    2    1    2    0    0 -0.27529724970E+02 -0.20822210128E+02  0.15117154529E+03  0.18057543318E+03  0.92537564107E+02 0.  0.
          5    1    4    4  502    0 -0.24477811139E+02 -0.47888768152E+02  0.14123747382E+03  0.15120387351E+03  0.47000000000E+01 0. -1.
         -5    1    4    4    0  502 -0.30519138309E+01  0.27066558024E+02  0.99340714660E+01  0.29371559666E+02  0.47000000000E+01 0.  1.
          5    1    3    3  503    0 -0.31388330543E+02  0.17630390482E+02 -0.40895474927E+02  0.54686267311E+02  0.47000000000E+01 0. -1.
         -5    1    3    3    0  503  0.58918055513E+02  0.31918196459E+01 -0.63350251714E+02  0.86699881028E+02  0.47000000000E+01 0.  1.
<mgrwt>
<rscale>  0 0.97942423E+02</rscale>
<asrwt>0</asrwt>
<pdfrwt beam="1">  1        2 0.28375954E-01 0.98765637E+02</pdfrwt>
<pdfrwt beam="2">  1       -2 0.21156597E-01 0.98765637E+02</pdfrwt>
<totfact> 0.33651363E+03</totfact>
</mgrwt>
</event>
<event>
 8    1  0.1893090E-003  0.9757443E+02  0.7546771E-02  0.1285530E+00
          2   -1    0    0  501    0  0.00000000000E+00  0.00000000000E+00  0.29885992926E+03  0.29885992926E+03  0.00000000000E+00 0. -1.
         -2   -1    0    0    0  501 -0.00000000000E+00 -0.00000000000E+00 -0.34283617336E+02  0.34283617336E+02  0.00000000000E+00 0.  1.
         23    2    1    2    0    0  0.17674780651E+02 -0.38484818420E+02  0.87762303280E+02  0.13123639437E+03  0.87905006744E+02 0.  0.
         23    2    1    2    0    0 -0.17674780651E+02  0.38484818420E+02  0.17681400864E+03  0.20190715222E+03  0.87805611134E+02 0.  0.
          5    1    3    3  502    0  0.29181097490E+02  0.15176318926E+02  0.62187319779E+02  0.70506807105E+02  0.47000000000E+01 0. -1.
         -5    1    3    3    0  502 -0.11506316839E+02 -0.53661137346E+02  0.25574983501E+02  0.60729587266E+02  0.47000000000E+01 0.  1.
          5    1    4    4  503    0  0.24511152719E+02  0.84239971812E+00  0.12203612234E+02  0.27794323098E+02  0.47000000000E+01 0. -1.
         -5    1    4    4    0  503 -0.42185933370E+02  0.37642418702E+02  0.16461039641E+03  0.17411282912E+03  0.47000000000E+01 0.  1.
<mgrwt>
<rscale>  0 0.97552038E+02</rscale>
<asrwt>0</asrwt>
<pdfrwt beam="1">  1        2 0.45978449E-01 0.97574430E+02</pdfrwt>
<pdfrwt beam="2">  1       -2 0.52744029E-02 0.97574430E+02</pdfrwt>
<totfact> 0.17965538E+04</totfact>
</mgrwt>
</event>
<event>
 8    1  0.1893090E-003  0.1210482E+03  0.7546771E-02  0.1242155E+00
         -1   -1    0    0    0  501 -0.00000000000E+00  0.00000000000E+00  0.38520505044E+02  0.38520505044E+02  0.00000000000E+00 0.  1.
          1   -1    0    0  501    0  0.00000000000E+00 -0.00000000000E+00 -0.56260252151E+03  0.56260252151E+03  0.00000000000E+00 0. -1.
         23    2    1    2    0    0 -0.73310220709E+02  0.22095153631E+02 -0.43721839249E+03  0.45366573624E+03  0.93755497050E+02 0.  0.
         23    2    1    2    0    0  0.73310220709E+02 -0.22095153631E+02 -0.86863623977E+02  0.14745729032E+03  0.91300487536E+02 0.  0.
          5    1    3    3  502    0 -0.40227380481E+02  0.49902234544E+02 -0.35389886726E+03  0.35968732727E+03  0.47000000000E+01 0. -1.
         -5    1    4    4    0  503  0.57188989622E+02 -0.56633118652E+02 -0.62030260468E+02  0.10172381174E+03  0.47000000000E+01 0.  1.
          5    1    4    4  503    0  0.16121231087E+02  0.34537965021E+02 -0.24833363509E+02  0.45733478577E+02  0.47000000000E+01 0. -1.
         -5    1    3    3    0  502 -0.33082840227E+02 -0.27807080913E+02 -0.83319525235E+02  0.93978408966E+02  0.47000000000E+01 0.  1.
<mgrwt>
<rscale>  0 0.12057261E+03</rscale>
<asrwt>0</asrwt>
<pdfrwt beam="1">  1        1 0.86554237E-01 0.12104824E+03</pdfrwt>
<pdfrwt beam="2">  1       -1 0.59262313E-02 0.12104824E+03</pdfrwt>
<totfact> 0.50270250E+03</totfact>
</mgrwt>
</event>
<event>
 8    1  0.1893090E-003  0.1328959E+03  0.7546771E-02  0.1224409E+00
         -2   -1    0    0    0  501 -0.00000000000E+00  0.00000000000E+00  0.25717239181E+02  0.25717239181E+02  0.00000000000E+00 0.  1.
          2   -1    0    0  501    0  0.00000000000E+00 -0.00000000000E+00 -0.77080778284E+03  0.77080778284E+03  0.00000000000E+00 0. -1.
         23    2    1    2    0    0  0.37357704181E+02 -0.84482827445E+02 -0.23257173580E+03  0.26786362205E+03  0.95542459299E+02 0.  0.
         23    2    1    2    0    0 -0.37357704181E+02  0.84482827445E+02 -0.51251880786E+03  0.52866139997E+03  0.90963735727E+02 0.  0.
          5    1    4    4  502    0  0.72976528564E+01  0.74222730944E+02 -0.21541906773E+03  0.22801257481E+03  0.47000000000E+01 0. -1.
         -5    1    3    3    0  503 -0.26185913093E+02  0.58346515046E+00 -0.46026502633E+02  0.53165509691E+02  0.47000000000E+01 0.  1.
          5    1    3    3  503    0  0.63543617275E+02 -0.85066292596E+02 -0.18654523317E+03  0.21469811236E+03  0.47000000000E+01 0. -1.
         -5    1    4    4    0  502 -0.44655357038E+02  0.10260096501E+02 -0.29709974012E+03  0.30064882516E+03  0.47000000000E+01 0.  1.
<mgrwt>
<rscale>  0 0.13207511E+03</rscale>
<asrwt>0</asrwt>
<pdfrwt beam="1">  1        2 0.11858580E+00 0.13289585E+03</pdfrwt>
<pdfrwt beam="2">  1       -2 0.39564987E-02 0.13289585E+03</pdfrwt>
<totfact> 0.99591418E+03</totfact>
</mgrwt>
</event>
<event>
 8    1  0.1893090E-003  0.1604144E+03  0.7546771E-02  0.1188333E+00
         -2   -1    0    0    0  501 -0.00000000000E+00  0.00000000000E+00  0.81008536018E+02  0.81008536018E+02  0.00000000000E+00 0.  1.
          2   -1    0    0  501    0  0.00000000000E+00 -0.00000000000E+00 -0.37381101046E+03  0.37381101046E+03  0.00000000000E+00 0. -1.
         23    2    1    2    0    0  0.28049219261E+02  0.12820731715E+03 -0.57550202541E+02  0.17008036178E+03  0.91604742116E+02 0.  0.
         23    2    1    2    0    0 -0.28049219261E+02 -0.12820731715E+03 -0.23525227190E+03  0.28473918469E+03  0.92243682677E+02 0.  0.
          5    1    3    3  502    0  0.51593379962E+02  0.81397828238E+02 -0.65859690081E+02  0.11682068342E+03  0.47000000000E+01 0. -1.
         -5    1    4    4    0  503 -0.45766887751E+02 -0.20305559239E+02 -0.62281929079E+02  0.80050311931E+02  0.47000000000E+01 0.  1.
          5    1    4    4  503    0  0.17717668490E+02 -0.10790175791E+03 -0.17297034282E+03  0.20468887276E+03  0.47000000000E+01 0. -1.
         -5    1    3    3    0  502 -0.23544160701E+02  0.46809488915E+02  0.83094875402E+01  0.53259678358E+02  0.47000000000E+01 0.  1.
<mgrwt>
<rscale>  0 0.16032266E+03</rscale>
<asrwt>0</asrwt>
<pdfrwt beam="1">  1        2 0.57509385E-01 0.16041438E+03</pdfrwt>
<pdfrwt beam="2">  1       -2 0.12462852E-01 0.16041438E+03</pdfrwt>
<totfact> 0.38908276E+03</totfact>
</mgrwt>
</event>
<event>
 8    1  0.1893090E-003  0.1019540E+03  0.7546771E-02  0.1277118E+00
          1   -1    0    0  501    0  0.00000000000E+00  0.00000000000E+00  0.13864818407E+02  0.13864818407E+02  0.00000000000E+00 0. -1.
         -1   -1    0    0    0  501 -0.00000000000E+00 -0.00000000000E+00 -0.78825902250E+03  0.78825902250E+03  0.00000000000E+00 0.  1.
         23    2    1    2    0    0 -0.27309752850E+02  0.31813730826E+02 -0.49223770431E+03  0.50268537297E+03  0.92933796742E+02 0.  0.
         23    2    1    2    0    0  0.27309752850E+02 -0.31813730826E+02 -0.28215649978E+03  0.29943846794E+03  0.91066841634E+02 0.  0.
          5    1    3    3  502    0 -0.23825435158E+02  0.53192571356E+02 -0.45915817815E+03  0.46286652889E+03  0.47000000000E+01 0. -1.
         -5    1    3    3    0  502 -0.34843176915E+01 -0.21378840530E+02 -0.33079526168E+02  0.39818844077E+02  0.47000000000E+01 0.  1.
          5    1    4    4  503    0  0.47003029512E+02 -0.67440088229E+01 -0.69192818082E+02  0.84050594956E+02  0.47000000000E+01 0. -1.
         -5    1    4    4    0  503 -0.19693276662E+02 -0.25069722003E+02 -0.21296368169E+03  0.21538787298E+03  0.47000000000E+01 0.  1.
<mgrwt>
<rscale>  0 0.10152665E+03</rscale>
<asrwt>0</asrwt>
<pdfrwt beam="1">  1        1 0.21330493E-02 0.10195404E+03</pdfrwt>
<pdfrwt beam="2">  1       -1 0.12127060E+00 0.10195404E+03</pdfrwt>
<totfact> 0.33550739E+03</totfact>
</mgrwt>
</event>
<event>
 8    1  0.1893090E-003  0.1688291E+03  0.7546771E-02  0.1179351E+00
          1   -1    0    0  501    0  0.00000000000E+00  0.00000000000E+00  0.70644933638E+03  0.70644933638E+03  0.00000000000E+00 0. -1.
         -1   -1    0    0    0  501 -0.00000000000E+00 -0.00000000000E+00 -0.50742438338E+02  0.50742438338E+02  0.00000000000E+00 0.  1.
         23    2    1    2    0    0  0.11011293420E+03 -0.88285863084E+02  0.15364151780E+03  0.22750045218E+03  0.90727547372E+02 0.  0.
         23    2    1    2    0    0 -0.11011293420E+03  0.88285863084E+02  0.50206538024E+03  0.52969132254E+03  0.92649874462E+02 0.  0.
          5    1    4    4  502    0 -0.94208485353E+02  0.44158201364E+02  0.43763089461E+03  0.44985339320E+03  0.47000000000E+01 0. -1.
         -5    1    4    4    0  502 -0.15904448844E+02  0.44127661720E+02  0.64434485634E+02  0.79837929337E+02  0.47000000000E+01 0.  1.
          5    1    3    3  503    0  0.62701869161E+02  0.37283402868E+01  0.45302116172E+02  0.77587348500E+02  0.47000000000E+01 0. -1.
         -5    1    3    3    0  503  0.47411065036E+02 -0.92014203371E+02  0.10833940163E+03  0.14991310368E+03  0.47000000000E+01 0.  1.
<mgrwt>
<rscale>  0 0.16856664E+03</rscale>
<asrwt>0</asrwt>
<pdfrwt beam="1">  1        1 0.10868451E+00 0.16882906E+03</pdfrwt>
<pdfrwt beam="2">  1       -1 0.78065295E-02 0.16882906E+03</pdfrwt>
<totfact> 0.24572017E+03</totfact>
</mgrwt>
</event>
<event>
 8    1  0.1893090E-003  0.1138704E+03  0.7546771E-02  0.1253708E+00
          1   -1    0    0  501    0  0.00000000000E+00  0.00000000000E+00  0.56173141741E+02  0.56173141741E+02  0.00000000000E+00 0. -1.
         -1   -1    0    0    0  501 -0.00000000000E+00 -0.00000000000E+00 -0.28048753442E+03  0.28048753442E+03  0.00000000000E+00 0.  1.
         23    2    1    2    0    0  0.30454628906E+02 -0.60590052081E+02 -0.40997185069E+02  0.12102581473E+03  0.91475897446E+02 0.  0.
         23    2    1    2    0    0 -0.30454628906E+02  0.60590052081E+02 -0.18331720761E+03  0.21563486143E+03  0.91074453207E+02 0.  0.
          5    1    4    4  502    0 -0.37584683552E+02 -0.10233908399E+02 -0.89945607506E+02  0.98130747620E+02  0.47000000000E+01 0. -1.
         -5    1    3    3    0  503  0.40378882171E+02  0.96489705766E+01 -0.75462433643E+01  0.42456949343E+02  0.47000000000E+01 0.  1.
          5    1    3    3  503    0 -0.99242532648E+01 -0.70239022658E+02 -0.33450941705E+02  0.78568865384E+02  0.47000000000E+01 0. -1.
         -5    1    4    4    0  502  0.71300546458E+01  0.70823960480E+02 -0.93371600102E+02  0.11750411381E+03  0.47000000000E+01 0.  1.
<mgrwt>
<rscale>  0 0.11378980E+03</rscale>
<asrwt>0</asrwt>
<pdfrwt beam="1">  1        1 0.86420219E-02 0.11387045E+03</pdfrwt>
<pdfrwt beam="2">  1       -1 0.43151928E-01 0.11387045E+03</pdfrwt>
<totfact> 0.39928454E+03</totfact>
</mgrwt>
</event>
<event>
 8    1  0.1893090E-003  0.1151661E+03  0.7546771E-02  0.1251952E+00
          1   -1    0    0  501    0  0.00000000000E+00  0.00000000000E+00  0.36578397983E+03  0.36578397983E+03  0.00000000000E+00 0. -1.
         -1   -1    0    0    0  501 -0.00000000000E+00 -0.00000000000E+00 -0.91923548637E+02  0.91923548637E+02  0.00000000000E+00 0.  1.
         23    2    1    2    0    0 -0.64609753214E+02 -0.21789154389E+01  0.31612090542E+03  0.33644563683E+03  0.95310397209E+02 0.  0.
         23    2    1    2    0    0  0.64609753214E+02  0.21789154389E+01 -0.42260474219E+02  0.12126189164E+03  0.93484388007E+02 0.  0.
          5    1    4    4  502    0  0.63286522798E+02 -0.36350196395E+02 -0.37337220534E+02  0.82113816030E+02  0.47000000000E+01 0. -1.
         -5    1    4    4    0  502  0.13232304160E+01  0.38529111834E+02 -0.49232536845E+01  0.39148075614E+02  0.47000000000E+01 0.  1.
          5    1    3    3  503    0  0.20176580039E+02  0.13896771953E+02  0.40246906061E+02  0.47351009496E+02  0.47000000000E+01 0. -1.
         -5    1    3    3    0  503 -0.84786333253E+02 -0.16075687392E+02  0.27587399936E+03  0.28909462733E+03  0.47000000000E+01 0.  1.
<mgrwt>
<rscale>  0 0.11478764E+03</rscale>
<asrwt>0</asrwt>
<pdfrwt beam="1">  1        1 0.56274458E-01 0.11516614E+03</pdfrwt>
<pdfrwt beam="2">  1       -1 0.14142085E-01 0.11516614E+03</pdfrwt>
<totfact> 0.23294418E+03</totfact>
</mgrwt>
</event>
<event>
 8    1  0.1893090E-003  0.1010176E+03  0.7546771E-02  0.1278234E+00
          4   -1    0    0  501    0  0.00000000000E+00  0.00000000000E+00  0.49377739674E+02  0.49377739674E+02  0.00000000000E+00 0. -1.
         -4   -1    0    0    0  501 -0.00000000000E+00 -0.00000000000E+00 -0.28012817944E+03  0.28012817944E+03  0.00000000000E+00 0.  1.
         23    2    1    2    0    0  0.33916310069E+02  0.28641917702E+02 -0.19994251179E+03  0.22401243286E+03  0.90740765465E+02 0.  0.
         23    2    1    2    0    0 -0.33916310069E+02 -0.28641917702E+02 -0.30807927980E+02  0.10549348626E+03  0.90603927496E+02 0.  0.
          5    1    4    4  502    0  0.24382548468E+02 -0.33876878849E+02 -0.98369959377E+01  0.43139402864E+02  0.47000000000E+01 0.  1.
         -5    1    3    3    0  503  0.48382952474E+02 -0.18049499398E+02 -0.10646532823E+03  0.11842149566E+03  0.47000000000E+01 0.  1.
          5    1    3    3  503    0 -0.14466642405E+02  0.46691417100E+02 -0.93477183553E+02  0.10559093720E+03  0.47000000000E+01 0. -1.
         -5    1    4    4    0  502 -0.58298858537E+02  0.52349611470E+01 -0.20970932042E+02  0.62354083392E+02  0.47000000000E+01 0. -1.
<mgrwt>
<rscale>  0 0.10098689E+03</rscale>
<asrwt>0</asrwt>
<pdfrwt beam="1">  1        4 0.75965752E-02 0.10101763E+03</pdfrwt>
<pdfrwt beam="2">  1       -4 0.43096644E-01 0.10101763E+03</pdfrwt>
<totfact> 0.97543516E+02</totfact>
</mgrwt>
</event>
<event>
 8    1  0.1893090E-003  0.1544271E+03  0.7546771E-02  0.1195391E+00
          2   -1    0    0  501    0  0.00000000000E+00  0.00000000000E+00  0.14784106901E+03  0.14784106901E+03  0.00000000000E+00 0. -1.
         -2   -1    0    0    0  501 -0.00000000000E+00 -0.00000000000E+00 -0.18697115913E+03  0.18697115913E+03  0.00000000000E+00 0.  1.
         23    2    1    2    0    0  0.58946971126E+02  0.10859877315E+03  0.43484258178E+02  0.16043258273E+03  0.92624478170E+02 0.  0.
         23    2    1    2    0    0 -0.58946971126E+02 -0.10859877315E+03 -0.82614348290E+02  0.17437964542E+03  0.91184928892E+02 0.  0.
          5    1    4    4  502    0  0.18987149333E+02 -0.54489624604E+02 -0.39332964268E+02  0.69991450245E+02  0.47000000000E+01 0. -1.
         -5    1    3    3    0  503 -0.23445452009E+02  0.14925420371E+02 -0.14268948732E+00  0.28188078215E+02  0.47000000000E+01 0.  1.
          5    1    3    3  503    0  0.82392423135E+02  0.93673352779E+02  0.43626947665E+02  0.13224450451E+03  0.47000000000E+01 0. -1.
         -5    1    4    4    0  502 -0.77934120459E+02 -0.54109148546E+02 -0.43281384022E+02  0.10438819517E+03  0.47000000000E+01 0.  1.
<mgrwt>
<rscale>  0 0.15421188E+03</rscale>
<asrwt>0</asrwt>
<pdfrwt beam="1">  1        2 0.22744780E-01 0.15442711E+03</pdfrwt>
<pdfrwt beam="2">  1       -2 0.28764794E-01 0.15442711E+03</pdfrwt>
<totfact> 0.25739991E+03</totfact>
</mgrwt>
</event>
<event>
 8    1  0.1893090E-003  0.9848417E+02  0.7546771E-02  0.1284788E+00
          1   -1    0    0  501    0  0.00000000000E+00  0.00000000000E+00  0.70603455999E+02  0.70603455999E+02  0.00000000000E+00 0. -1.
         -1   -1    0    0    0  501 -0.00000000000E+00 -0.00000000000E+00 -0.13516631032E+03  0.13516631032E+03  0.00000000000E+00 0.  1.
         23    2    1    2    0    0  0.33837213881E+02 -0.27327200466E+02 -0.40905213579E+02  0.10448395768E+03  0.85743384498E+02 0.  0.
         23    2    1    2    0    0 -0.33837213881E+02  0.27327200466E+02 -0.23657640740E+02  0.10128580864E+03  0.88359482447E+02 0.  0.
          5    1    4    4  502    0  0.19194063097E+02  0.10907450085E+02  0.20270267595E+02  0.30337407172E+02  0.47000000000E+01 0. -1.
         -5    1    4    4    0  502 -0.53031276978E+02  0.16419750381E+02 -0.43927908335E+02  0.70948401470E+02  0.47000000000E+01 0.  1.
          5    1    3    3  503    0  0.54249386287E+02  0.72692005365E+01 -0.30013167100E+02  0.62599659650E+02  0.47000000000E+01 0. -1.
         -5    1    3    3    0  503 -0.20412172406E+02 -0.34596401002E+02 -0.10892046479E+02  0.41884298026E+02  0.47000000000E+01 0.  1.
<mgrwt>
<rscale>  0 0.97893828E+02</rscale>
<asrwt>0</asrwt>
<pdfrwt beam="1">  1        1 0.10862070E-01 0.98484167E+02</pdfrwt>
<pdfrwt beam="2">  1       -1 0.20794817E-01 0.98484167E+02</pdfrwt>
<totfact> 0.99051021E+03</totfact>
</mgrwt>
</event>
<event>
 8    1  0.1893090E-003  0.9887105E+02  0.7546771E-02  0.1287642E+00
          2   -1    0    0  501    0  0.00000000000E+00  0.00000000000E+00  0.82888969276E+03  0.82888969276E+03  0.00000000000E+00 0.  1.
         -2   -1    0    0    0  501 -0.00000000000E+00 -0.00000000000E+00 -0.11352491834E+02  0.11352491834E+02  0.00000000000E+00 0. -1.
         23    2    1    2    0    0 -0.72488689505E+01  0.26778335719E+02  0.33134207448E+03  0.34577891080E+03  0.94899206868E+02 0.  0.
         23    2    1    2    0    0  0.72488689505E+01 -0.26778335719E+02  0.48619512644E+03  0.49446327379E+03  0.85665645345E+02 0.  0.
          5    1    3    3  502    0  0.32210927136E+02 -0.19327914000E+02  0.13627579564E+03  0.14143653900E+03  0.47000000000E+01 0. -1.
         -5    1    3    3    0  502 -0.39459796087E+02  0.46106249720E+02  0.19506627884E+03  0.20434237180E+03  0.47000000000E+01 0.  1.
          5    1    4    4  503    0 -0.38423348640E+02 -0.19832229117E+02  0.24767545910E+03  0.25146549281E+03  0.47000000000E+01 0. -1.
         -5    1    4    4    0  503  0.45672217590E+02 -0.69461066021E+01  0.23851966733E+03  0.24299778098E+03  0.47000000000E+01 0.  1.
<mgrwt>
<rscale>  0 0.96586763E+02</rscale>
<asrwt>0</asrwt>
<pdfrwt beam="1">  1        2 0.12752144E+00 0.98871052E+02</pdfrwt>
<pdfrwt beam="2">  1       -2 0.17465379E-02 0.98871052E+02</pdfrwt>
<totfact> 0.29294428E+04</totfact>
</mgrwt>
</event>
<event>
 8    1  0.1893090E-003  0.1185075E+03  0.7546771E-02  0.1248253E+00
         -2   -1    0    0    0  501 -0.00000000000E+00  0.00000000000E+00  0.80696425968E+02  0.80696425968E+02  0.00000000000E+00 0.  1.
          2   -1    0    0  501    0  0.00000000000E+00 -0.00000000000E+00 -0.27448253831E+03  0.27448253831E+03  0.00000000000E+00 0. -1.
         23    2    1    2    0    0  0.41112108208E+02  0.59701658350E+02  0.16775094915E+02  0.11355932876E+03  0.85789415944E+02 0.  0.
         23    2    1    2    0    0 -0.41112108208E+02 -0.59701658350E+02 -0.21056120726E+03  0.24161963552E+03  0.93752508316E+02 0.  0.
          5    1    3    3  502    0 -0.14230624422E+02  0.52849527200E+02 -0.67921818525E+00  0.54937551219E+02  0.47000000000E+01 0. -1.
         -5    1    3    3    0  502  0.55342732630E+02  0.68521311509E+01  0.17454313100E+02  0.58621777541E+02  0.47000000000E+01 0.  1.
          5    1    4    4  503    0  0.85824581330E+01 -0.63776010615E+02 -0.14820622326E+03  0.16164223684E+03  0.47000000000E+01 0. -1.
         -5    1    4    4    0  503 -0.49694566341E+02  0.40743522645E+01 -0.62354983996E+02  0.79977398678E+02  0.47000000000E+01 0.  1.
<mgrwt>
<rscale>  0 0.11692768E+03</rscale>
<asrwt>0</asrwt>
<pdfrwt beam="1">  1        2 0.42228082E-01 0.11850749E+03</pdfrwt>
<pdfrwt beam="2">  1       -2 0.12414835E-01 0.11850749E+03</pdfrwt>
<totfact> 0.53448703E+03</totfact>
</mgrwt>
</event>
<event>
 8    1  0.1893090E-003  0.1163289E+03  0.7546771E-02  0.1251368E+00
         -1   -1    0    0    0  501 -0.00000000000E+00  0.00000000000E+00  0.12482696347E+03  0.12482696347E+03  0.00000000000E+00 0.  1.
          1   -1    0    0  501    0  0.00000000000E+00 -0.00000000000E+00 -0.26528498518E+03  0.26528498518E+03  0.00000000000E+00 0. -1.
         23    2    1    2    0    0  0.59256636747E+02 -0.41348041658E+02  0.81261207052E+02  0.14190066956E+03  0.91166916712E+02 0.  0.
         23    2    1    2    0    0 -0.59256636747E+02  0.41348041658E+02 -0.22171922877E+03  0.24821127909E+03  0.85020074780E+02 0.  0.
          5    1    4    4  502    0 -0.47884514223E+02  0.40798374282E+01 -0.19461155244E+03  0.20051263830E+03  0.47000000000E+01 0. -1.
         -5    1    3    3    0  503  0.79410993004E+02 -0.49881907641E+02  0.67198158676E+02  0.11546425009E+03  0.47000000000E+01 0.  1.
          5    1    3    3  503    0 -0.20154356257E+02  0.85338659824E+01  0.14063048376E+02  0.26436419469E+02  0.47000000000E+01 0. -1.
         -5    1    4    4    0  502 -0.11372122524E+02  0.37268204230E+02 -0.27107676326E+02  0.47698640788E+02  0.47000000000E+01 0.  1.
<mgrwt>
<rscale>  0 0.11512229E+03</rscale>
<asrwt>0</asrwt>
<pdfrwt beam="1">  1        1 0.40813074E-01 0.11632891E+03</pdfrwt>
<pdfrwt beam="2">  1       -1 0.19204148E-01 0.11632891E+03</pdfrwt>
<totfact> 0.21412511E+03</totfact>
</mgrwt>
</event>
<event>
 8    1  0.1893090E-003  0.9631547E+02  0.7546771E-02  0.1288705E+00
         -4   -1    0    0    0  501 -0.00000000000E+00  0.00000000000E+00  0.18178123576E+03  0.18178123576E+03  0.00000000000E+00 0.  1.
          4   -1    0    0  501    0  0.00000000000E+00 -0.00000000000E+00 -0.56518819351E+02  0.56518819351E+02  0.00000000000E+00 0. -1.
         23    2    1    2    0    0 -0.23181579733E+02  0.17744887427E+02  0.24285812549E+02  0.99330104518E+02  0.91784542836E+02 0.  0.
         23    2    1    2    0    0  0.23181579733E+02 -0.17744887427E+02  0.10097660386E+03  0.13896995059E+03  0.90907128281E+02 0.  0.
          5    1    3    3  502    0  0.19107443099E+02  0.41988164829E+02  0.47755162259E+01  0.46615404350E+02  0.47000000000E+01 0. -1.
         -5    1    3    3    0  502 -0.42289022832E+02 -0.24243277401E+02  0.19510296323E+02  0.52714700168E+02  0.47000000000E+01 0.  1.
          5    1    4    4  503    0  0.43547505620E+02 -0.25647504559E+02  0.19317453377E+02  0.54308689367E+02  0.47000000000E+01 0. -1.
         -5    1    4    4    0  503 -0.20365925888E+02  0.79026171317E+01  0.81659150484E+02  0.84661261227E+02  0.47000000000E+01 0.  1.
<mgrwt>
<rscale>  0 0.96105840E+02</rscale>
<asrwt>0</asrwt>
<pdfrwt beam="1">  1        4 0.86952031E-02 0.96315466E+02</pdfrwt>
<pdfrwt beam="2">  1       -4 0.27966344E-01 0.96315466E+02</pdfrwt>
<totfact> 0.17673007E+03</totfact>
</mgrwt>
</event>
<event>
 8    1  0.1893090E-003  0.1004465E+03  0.7546771E-02  0.1281582E+00
          2   -1    0    0  501    0  0.00000000000E+00  0.00000000000E+00  0.45275316931E+03  0.45275316931E+03  0.00000000000E+00 0. -1.
         -2   -1    0    0    0  501 -0.00000000000E+00 -0.00000000000E+00 -0.21791679111E+02  0.21791679111E+02  0.00000000000E+00 0.  1.
         23    2    1    2    0    0  0.24344119393E+02  0.16076958797E+02  0.17810503116E+03  0.20246786484E+03  0.91764532453E+02 0.  0.
         23    2    1    2    0    0 -0.24344119393E+02 -0.16076958797E+02  0.25285645904E+03  0.27207698358E+03  0.96116550925E+02 0.  0.
          5    1    4    4  502    0 -0.43487397072E+02 -0.39653538572E+02  0.21682922329E+03  0.22472329407E+03  0.47000000000E+01 0. -1.
         -5    1    4    4    0  502  0.19143277679E+02  0.23576579775E+02  0.36027235748E+02  0.47353689506E+02  0.47000000000E+01 0.  1.
          5    1    3    3  503    0 -0.90408514471E+01 -0.27054705787E+02  0.20001310676E+02  0.35154466699E+02  0.47000000000E+01 0. -1.
         -5    1    3    3    0  503  0.33384970840E+02  0.43131664584E+02  0.15810372048E+03  0.16731339814E+03  0.47000000000E+01 0.  1.
<mgrwt>
<rscale>  0 0.99390932E+02</rscale>
<asrwt>0</asrwt>
<pdfrwt beam="1">  1        2 0.69654327E-01 0.10044648E+03</pdfrwt>
<pdfrwt beam="2">  1       -2 0.33525664E-02 0.10044648E+03</pdfrwt>
<totfact> 0.22713605E+04</totfact>
</mgrwt>
</event>
<event>
 8    1  0.1893090E-003  0.1046359E+03  0.7546771E-02  0.1277083E+00
          2   -1    0    0  501    0  0.00000000000E+00  0.00000000000E+00  0.55886440104E+03  0.55886440104E+03  0.00000000000E+00 0. -1.
         -2   -1    0    0    0  501 -0.00000000000E+00 -0.00000000000E+00 -0.17813728926E+02  0.17813728926E+02  0.00000000000E+00 0.  1.
         23    2    1    2    0    0  0.35289499848E+01 -0.12855886408E+02  0.24461390872E+03  0.26605383710E+03  0.10378319996E+03 0.  0.
         23    2    1    2    0    0 -0.35289499848E+01  0.12855886408E+02  0.29643676339E+03  0.31062429286E+03  0.91842089056E+02 0.  0.
          5    1    3    3  502    0 -0.28269228512E+02  0.33787677498E+02  0.14313781589E+03  0.14983751456E+03  0.47000000000E+01 0. -1.
         -5    1    4    4    0  503  0.42547995693E+02  0.14089266788E+02  0.17315926509E+03  0.17892752852E+03  0.47000000000E+01 0.  1.
          5    1    4    4  503    0 -0.46076945678E+02 -0.12333803800E+01  0.12327749830E+03  0.13169676434E+03  0.47000000000E+01 0. -1.
         -5    1    3    3    0  502  0.31798178497E+02 -0.46643563906E+02  0.10147609283E+03  0.11621632254E+03  0.47000000000E+01 0.  1.
<mgrwt>
<rscale>  0 0.10154372E+03</rscale>
<asrwt>0</asrwt>
<pdfrwt beam="1">  1        2 0.85979125E-01 0.10463594E+03</pdfrwt>
<pdfrwt beam="2">  1       -2 0.27405741E-02 0.10463594E+03</pdfrwt>
<totfact> 0.24341280E+04</totfact>
</mgrwt>
</event>
<event>
 8    1  0.1893090E-003  0.9626254E+02  0.7546771E-02  0.1289013E+00
         -1   -1    0    0    0  501 -0.00000000000E+00  0.00000000000E+00  0.20778099852E+02  0.20778099852E+02  0.00000000000E+00 0.  1.
          1   -1    0    0  501    0  0.00000000000E+00 -0.00000000000E+00 -0.44951322327E+03  0.44951322327E+03  0.00000000000E+00 0. -1.
         23    2    1    2    0    0  0.10591338576E+02 -0.24858745843E+02 -0.24889326146E+03  0.26686013468E+03  0.92392327534E+02 0.  0.
         23    2    1    2    0    0 -0.10591338576E+02  0.24858745843E+02 -0.17984186196E+03  0.20343118844E+03  0.91164792646E+02 0.  0.
          5    1    4    4  502    0 -0.24790150799E+01 -0.32686014179E+02 -0.40045513824E+02  0.51963970365E+02  0.47000000000E+01 0. -1.
         -5    1    3    3    0  503 -0.40914181398E+01  0.25688257100E+02 -0.23546514233E+02  0.35399923556E+02  0.47000000000E+01 0.  1.
          5    1    3    3  503    0  0.14682756716E+02 -0.50547002942E+02 -0.22534674722E+03  0.23146021113E+03  0.47000000000E+01 0. -1.
         -5    1    4    4    0  502 -0.81123234959E+01  0.57544760022E+02 -0.13979634814E+03  0.15146721807E+03  0.47000000000E+01 0.  1.
<mgrwt>
<rscale>  0 0.95966787E+02</rscale>
<asrwt>0</asrwt>
<pdfrwt beam="1">  1        1 0.69155880E-01 0.96262536E+02</pdfrwt>
<pdfrwt beam="2">  1       -1 0.31966308E-02 0.96262536E+02</pdfrwt>
<totfact> 0.16318604E+04</totfact>
</mgrwt>
</event>
<event>
 8    1  0.1893090E-003  0.2015647E+03  0.7546771E-02  0.1149173E+00
          3   -1    0    0  501    0  0.00000000000E+00  0.00000000000E+00  0.76594845986E+03  0.76594845986E+03  0.00000000000E+00 0. -1.
         -3   -1    0    0    0  501 -0.00000000000E+00 -0.00000000000E+00 -0.55226068207E+02  0.55226068207E+02  0.00000000000E+00 0.  1.
         23    2    1    2    0    0  0.13492251996E+02 -0.17886451948E+03  0.25491952791E+03  0.32279255966E+03  0.83883929749E+02 0.  0.
         23    2    1    2    0    0 -0.13492251996E+02  0.17886451948E+03  0.45580286374E+03  0.49838196840E+03  0.91944432338E+02 0.  0.
          5    1    4    4  502    0 -0.49853847773E+02  0.12743273902E+03  0.33877094352E+03  0.36539341987E+03  0.47000000000E+01 0. -1.
         -5    1    3    3    0  503  0.47181707799E+02 -0.11628839346E+03  0.17937039077E+03  0.21896330992E+03  0.47000000000E+01 0.  1.
          5    1    3    3  503    0 -0.33689455804E+02 -0.62576126027E+02  0.75549137139E+02  0.10382924975E+03  0.47000000000E+01 0. -1.
         -5    1    4    4    0  502  0.36361595778E+02  0.51431780466E+02  0.11703192022E+03  0.13298854853E+03  0.47000000000E+01 0.  1.
<mgrwt>
<rscale>  0 0.20067209E+03</rscale>
<asrwt>0</asrwt>
<pdfrwt beam="1">  1        3 0.11783822E+00 0.20156472E+03</pdfrwt>
<pdfrwt beam="2">  1       -3 0.84963187E-02 0.20156472E+03</pdfrwt>
<totfact> 0.14623796E+02</totfact>
</mgrwt>
</event>
<event>
 8    1  0.1893090E-003  0.9290023E+02  0.7546771E-02  0.1296080E+00
          3   -1    0    0  501    0  0.00000000000E+00  0.00000000000E+00  0.24446573972E+03  0.24446573972E+03  0.00000000000E+00 0. -1.
         -3   -1    0    0    0  501 -0.00000000000E+00 -0.00000000000E+00 -0.47816988750E+02  0.47816988750E+02  0.00000000000E+00 0.  1.
         23    2    1    2    0    0 -0.18320601189E+01 -0.22170668899E+02  0.23431233155E+02  0.95809575606E+02  0.90197323059E+02 0.  0.
         23    2    1    2    0    0  0.18320601189E+01  0.22170668899E+02  0.17321751781E+03  0.19647315286E+03  0.90013867344E+02 0.  0.
          5    1    4    4  502    0  0.17914048857E+02  0.47948227584E+02  0.14812212205E+03  0.15678711272E+03  0.47000000000E+01 0. -1.
         -5    1    4    4    0  502 -0.16081988738E+02 -0.25777558685E+02  0.25095395765E+02  0.39686040142E+02  0.47000000000E+01 0.  1.
          5    1    3    3  503    0  0.42009689469E+02 -0.20162897201E+02  0.23452595996E+01  0.46892927776E+02  0.47000000000E+01 0. -1.
         -5    1    3    3    0  503 -0.43841749588E+02 -0.20077716974E+01  0.21085973556E+02  0.48916647830E+02  0.47000000000E+01 0.  1.
<mgrwt>
<rscale>  0 0.92855668E+02</rscale>
<asrwt>0</asrwt>
<pdfrwt beam="1">  1        3 0.37610113E-01 0.92900227E+02</pdfrwt>
<pdfrwt beam="2">  1       -3 0.73564599E-02 0.92900227E+02</pdfrwt>
<totfact> 0.18304034E+03</totfact>
</mgrwt>
</event>
<event>
 8    1  0.1893090E-003  0.1145978E+03  0.7546771E-02  0.1263189E+00
         -1   -1    0    0    0  501 -0.00000000000E+00  0.00000000000E+00  0.21218257076E+03  0.21218257076E+03  0.00000000000E+00 0.  1.
          1   -1    0    0  501    0  0.00000000000E+00 -0.00000000000E+00 -0.50724296510E+02  0.50724296510E+02  0.00000000000E+00 0. -1.
         23    2    1    2    0    0 -0.79015108099E+01  0.99715734409E+01  0.63293028941E+02  0.11201263705E+03  0.91536644012E+02 0.  0.
         23    2    1    2    0    0  0.79015108099E+01 -0.99715734409E+01  0.98165245313E+02  0.15089423022E+03  0.11388936375E+03 0.  0.
          5    1    3    3  502    0 -0.34037479794E+02  0.35395951254E+02  0.15485806241E+02  0.51704193165E+02  0.47000000000E+01 0. -1.
         -5    1    3    3    0  502  0.26135968984E+02 -0.25424377813E+02  0.47807222700E+02  0.60308443888E+02  0.47000000000E+01 0.  1.
          5    1    4    4  503    0  0.22775111008E+02  0.48646963485E+02  0.47595090638E+02  0.71920896758E+02  0.47000000000E+01 0. -1.
         -5    1    4    4    0  503 -0.14873600198E+02 -0.58618536926E+02  0.50570154675E+02  0.78973333462E+02  0.47000000000E+01 0.  1.
<mgrwt>
<rscale>  0 0.10859745E+03</rscale>
<asrwt>0</asrwt>
<pdfrwt beam="1">  1        1 0.78037381E-02 0.11459779E+03</pdfrwt>
<pdfrwt beam="2">  1       -1 0.32643472E-01 0.11459779E+03</pdfrwt>
<totfact> 0.74121000E+03</totfact>
</mgrwt>
</event>
<event>
 8    1  0.1893090E-003  0.9751601E+02  0.7546771E-02  0.1287040E+00
         -2   -1    0    0    0  501 -0.00000000000E+00  0.00000000000E+00  0.94185947753E+02  0.94185947753E+02  0.00000000000E+00 0.  1.
          2   -1    0    0  501    0  0.00000000000E+00 -0.00000000000E+00 -0.11772224084E+03  0.11772224084E+03  0.00000000000E+00 0. -1.
         23    2    1    2    0    0  0.18633881498E+01 -0.28559126523E+02  0.31403760784E+02  0.99980618662E+02  0.90503215377E+02 0.  0.
         23    2    1    2    0    0 -0.18633881498E+01  0.28559126523E+02 -0.54940053867E+02  0.11192756993E+03  0.93221646992E+02 0.  0.
          5    1    3    3  502    0 -0.28369694756E+01  0.32625856908E+02  0.72760046364E+01  0.33875141007E+02  0.47000000000E+01 0. -1.
         -5    1    4    4    0  503 -0.40973414754E+02  0.13258150749E+02 -0.90495441568E+00  0.43330222944E+02  0.47000000000E+01 0.  1.
          5    1    4    4  503    0  0.39110026604E+02  0.15300975773E+02 -0.54035099451E+02  0.68597346984E+02  0.47000000000E+01 0. -1.
         -5    1    3    3    0  502  0.47003576254E+01 -0.61184983431E+02  0.24127756147E+02  0.66105477654E+02  0.47000000000E+01 0.  1.
<mgrwt>
<rscale>  0 0.96860586E+02</rscale>
<asrwt>0</asrwt>
<pdfrwt beam="1">  1        2 0.18111114E-01 0.97516006E+02</pdfrwt>
<pdfrwt beam="2">  1       -2 0.14490146E-01 0.97516006E+02</pdfrwt>
<totfact> 0.10312308E+04</totfact>
</mgrwt>
</event>
<event>
 8    1  0.1893090E-003  0.9245611E+02  0.7546771E-02  0.1297491E+00
          1   -1    0    0  501    0  0.00000000000E+00  0.00000000000E+00  0.13738393799E+03  0.13738393799E+03  0.00000000000E+00 0. -1.
         -1   -1    0    0    0  501 -0.00000000000E+00 -0.00000000000E+00 -0.61805397875E+02  0.61805397875E+02  0.00000000000E+00 0.  1.
         23    2    1    2    0    0 -0.13741888089E+02  0.88881515646E+01  0.42265983187E+02  0.10091492968E+03  0.90164133508E+02 0.  0.
         23    2    1    2    0    0  0.13741888089E+02 -0.88881515646E+01  0.33312556933E+02  0.98274406188E+02  0.90996119344E+02 0.  0.
          5    1    4    4  502    0  0.49325610299E+02 -0.12997520400E+01  0.36344527687E+02  0.61463158718E+02  0.47000000000E+01 0. -1.
         -5    1    3    3    0  503  0.24986363445E+02 -0.27263151957E+02  0.95905072831E+01  0.38492410197E+02  0.47000000000E+01 0.  1.
          5    1    3    3  503    0 -0.38728251534E+02  0.36151303522E+02  0.32675475904E+02  0.62422519484E+02  0.47000000000E+01 0. -1.
         -5    1    4    4    0  502 -0.35583722210E+02 -0.75883995246E+01 -0.30319707538E+01  0.36811247470E+02  0.47000000000E+01 0.  1.
<mgrwt>
<rscale>  0 0.92250745E+02</rscale>
<asrwt>0</asrwt>
<pdfrwt beam="1">  1        1 0.21135990E-01 0.92456111E+02</pdfrwt>
<pdfrwt beam="2">  1       -1 0.95085228E-02 0.92456111E+02</pdfrwt>
<totfact> 0.14096588E+04</totfact>
</mgrwt>
</event>
<event>
 8    1  0.1893090E-003  0.1269980E+03  0.7546771E-02  0.1235646E+00
         -1   -1    0    0    0  501 -0.00000000000E+00  0.00000000000E+00  0.16419525611E+03  0.16419525611E+03  0.00000000000E+00 0.  1.
          1   -1    0    0  501    0  0.00000000000E+00 -0.00000000000E+00 -0.15376815566E+03  0.15376815566E+03  0.00000000000E+00 0. -1.
         23    2    1    2    0    0 -0.77454353870E+02  0.22924756548E+02  0.10643712224E+03  0.15875784864E+03  0.85734894410E+02 0.  0.
         23    2    1    2    0    0  0.77454353870E+02 -0.22924756548E+02 -0.96010021794E+02  0.15920556312E+03  0.97998804323E+02 0.  0.
          5    1    4    4  502    0  0.21870227604E+02 -0.49400390443E+02 -0.77790585319E+02  0.94827056243E+02  0.47000000000E+01 0. -1.
         -5    1    3    3    0  503 -0.72160548804E+02 -0.10393672880E+01  0.11184626277E+03  0.13319122187E+03  0.47000000000E+01 0.  1.
          5    1    3    3  503    0 -0.52938050654E+01  0.23964123836E+02 -0.54091405301E+01  0.25566626774E+02  0.47000000000E+01 0. -1.
         -5    1    4    4    0  502  0.55584126265E+02  0.26475633895E+02 -0.18219436475E+02  0.64378506882E+02  0.47000000000E+01 0.  1.
<mgrwt>
<rscale>  0 0.12463141E+03</rscale>
<asrwt>0</asrwt>
<pdfrwt beam="1">  1        1 0.23656639E-01 0.12699798E+03</pdfrwt>
<pdfrwt beam="2">  1       -1 0.25260809E-01 0.12699798E+03</pdfrwt>
<totfact> 0.27135241E+03</totfact>
</mgrwt>
</event>
<event>
 8    1  0.1893090E-003  0.9276723E+02  0.7546771E-02  0.1296852E+00
          3   -1    0    0  501    0  0.00000000000E+00  0.00000000000E+00  0.47074688321E+02  0.47074688321E+02  0.00000000000E+00 0. -1.
         -3   -1    0    0    0  501 -0.00000000000E+00 -0.00000000000E+00 -0.18118079514E+03  0.18118079514E+03  0.00000000000E+00 0.  1.
         23    2    1    2    0    0 -0.17541072039E+02 -0.58691233316E+00 -0.71839896143E+02  0.11733170896E+03  0.91091852413E+02 0.  0.
         23    2    1    2    0    0  0.17541072039E+02  0.58691233316E+00 -0.62266210676E+02  0.11092377450E+03  0.90105322167E+02 0.  0.
          5    1    3    3  502    0  0.35716190464E+02 -0.87044292697E+01 -0.40208486937E+02  0.54682956869E+02  0.47000000000E+01 0. -1.
         -5    1    3    3    0  502 -0.53257262503E+02  0.81175169365E+01 -0.31631409206E+02  0.62648752094E+02  0.47000000000E+01 0.  1.
          5    1    4    4  503    0 -0.22303603652E+02 -0.10271316899E+02  0.10505661201E+02  0.27118436606E+02  0.47000000000E+01 0. -1.
         -5    1    4    4    0  503  0.39844675691E+02  0.10858229232E+02 -0.72771871876E+02  0.83805337893E+02  0.47000000000E+01 0.  1.
<mgrwt>
<rscale>  0 0.92524147E+02</rscale>
<asrwt>0</asrwt>
<pdfrwt beam="1">  1        3 0.72422598E-02 0.92767232E+02</pdfrwt>
<pdfrwt beam="2">  1       -3 0.27873968E-01 0.92767232E+02</pdfrwt>
<totfact> 0.32678231E+03</totfact>
</mgrwt>
</event>
<event>
 8    1  0.1893090E-003  0.9303320E+02  0.7546771E-02  0.1295932E+00
          2   -1    0    0  501    0  0.00000000000E+00  0.00000000000E+00  0.70592889733E+03  0.70592889733E+03  0.00000000000E+00 0. -1.
         -2   -1    0    0    0  501 -0.00000000000E+00 -0.00000000000E+00 -0.12695236682E+02  0.12695236682E+02  0.00000000000E+00 0.  1.
         23    2    1    2    0    0 -0.81352825307E+01 -0.16572502709E+02  0.41670597554E+03  0.42686612166E+03  0.90719265351E+02 0.  0.
         23    2    1    2    0    0  0.81352825307E+01  0.16572502709E+02  0.27652768511E+03  0.29175801235E+03  0.91183038280E+02 0.  0.
          5    1    4    4  502    0 -0.14141001421E+02 -0.24620325840E+02  0.19894145630E+03  0.20101224191E+03  0.47000000000E+01 0. -1.
         -5    1    3    3    0  503 -0.24835009566E+02  0.28143206680E+02  0.10747573124E+03  0.11393831923E+03  0.47000000000E+01 0.  1.
          5    1    3    3  503    0  0.16699727035E+02 -0.44715709389E+02  0.30923024430E+03  0.31292780244E+03  0.47000000000E+01 0. -1.
         -5    1    4    4    0  502  0.22276283952E+02  0.41192828549E+02  0.77586228814E+02  0.90745770436E+02  0.47000000000E+01 0.  1.
<mgrwt>
<rscale>  0 0.92919370E+02</rscale>
<asrwt>0</asrwt>
<pdfrwt beam="1">  1        2 0.10860442E+00 0.93033204E+02</pdfrwt>
<pdfrwt beam="2">  1       -2 0.19531139E-02 0.93033204E+02</pdfrwt>
<totfact> 0.30095594E+04</totfact>
</mgrwt>
</event>
<event>
 8    1  0.1893090E-003  0.1711551E+03  0.7546771E-02  0.1176936E+00
          2   -1    0    0  501    0  0.00000000000E+00  0.00000000000E+00  0.38721473102E+03  0.38721473102E+03  0.00000000000E+00 0. -1.
         -2   -1    0    0    0  501 -0.00000000000E+00 -0.00000000000E+00 -0.76360270663E+02  0.76360270663E+02  0.00000000000E+00 0.  1.
         23    2    1    2    0    0  0.99541758552E+02 -0.10349052970E+03  0.18492495734E+03  0.25197482536E+03  0.93140868241E+02 0.  0.
         23    2    1    2    0    0 -0.99541758552E+02  0.10349052970E+03  0.12592950302E+03  0.21160017632E+03  0.91090852745E+02 0.  0.
          5    1    3    3  502    0  0.41523010023E+02 -0.16057497665E+02  0.12099713321E+03  0.12901317699E+03  0.47000000000E+01 0. -1.
         -5    1    3    3    0  502  0.58018748529E+02 -0.87433032037E+02  0.63927824125E+02  0.12296164837E+03  0.47000000000E+01 0.  1.
          5    1    4    4  503    0 -0.53755289498E+01  0.38856532603E+02  0.78420395573E+02  0.87809879167E+02  0.47000000000E+01 0. -1.
         -5    1    4    4    0  503 -0.94166229603E+02  0.64633997099E+02  0.47509107444E+02  0.12379029715E+03  0.47000000000E+01 0.  1.
<mgrwt>
<rscale>  0 0.17087771E+03</rscale>
<asrwt>0</asrwt>
<pdfrwt beam="1">  1        2 0.59571496E-01 0.17115511E+03</pdfrwt>
<pdfrwt beam="2">  1       -2 0.11747734E-01 0.17115511E+03</pdfrwt>
<totfact> 0.41313742E+03</totfact>
</mgrwt>
</event>
<event>
 8    1  0.1893090E-003  0.1094992E+03  0.7546771E-02  0.1267681E+00
          2   -1    0    0  501    0  0.00000000000E+00  0.00000000000E+00  0.31504756397E+03  0.31504756397E+03  0.00000000000E+00 0. -1.
         -2   -1    0    0    0  501 -0.00000000000E+00 -0.00000000000E+00 -0.35211693836E+02  0.35211693836E+02  0.00000000000E+00 0.  1.
         23    2    1    2    0    0  0.88689325845E+01 -0.36581606323E+02  0.18230515411E+03  0.21266227721E+03  0.10282608156E+03 0.  0.
         23    2    1    2    0    0 -0.88689325845E+01  0.36581606323E+02  0.97530716023E+02  0.13759698059E+03  0.89464052072E+02 0.  0.
          5    1    3    3  502    0  0.20922277684E+02 -0.70038313719E+02  0.13048599005E+03  0.14963886758E+03  0.47000000000E+01 0. -1.
         -5    1    4    4    0  503  0.14855589547E+02  0.59099803143E+02  0.46483728269E+02  0.76787383508E+02  0.47000000000E+01 0.  1.
          5    1    4    4  503    0 -0.23724522131E+02 -0.22518196820E+02  0.51046987754E+02  0.60809597081E+02  0.47000000000E+01 0. -1.
         -5    1    3    3    0  502 -0.12053345099E+02  0.33456707396E+02  0.51819164058E+02  0.63023409631E+02  0.47000000000E+01 0.  1.
<mgrwt>
<rscale>  0 0.10624746E+03</rscale>
<asrwt>0</asrwt>
<pdfrwt beam="1">  1        2 0.48468854E-01 0.10949920E+03</pdfrwt>
<pdfrwt beam="2">  1       -2 0.54171839E-02 0.10949920E+03</pdfrwt>
<totfact> 0.16516158E+04</totfact>
</mgrwt>
</event>
<event>
 8    1  0.1893090E-003  0.1503299E+03  0.7546771E-02  0.1201913E+00
         -1   -1    0    0    0  501 -0.00000000000E+00  0.00000000000E+00  0.26207237814E+02  0.26207237814E+02  0.00000000000E+00 0.  1.
          1   -1    0    0  501    0  0.00000000000E+00 -0.00000000000E+00 -0.88904803521E+03  0.88904803521E+03  0.00000000000E+00 0. -1.
         23    2    1    2    0    0 -0.10867226623E+03  0.45391797705E+02 -0.54244609593E+03  0.56134589280E+03  0.83614398466E+02 0.  0.
         23    2    1    2    0    0  0.10867226623E+03 -0.45391797705E+02 -0.32039470146E+03  0.35390938022E+03  0.93429159977E+02 0.  0.
          5    1    4    4  502    0  0.87010799595E+02 -0.72879028313E+02 -0.22210509412E+03  0.24946942668E+03  0.47000000000E+01 0. -1.
         -5    1    4    4    0  502  0.21661466635E+02  0.27487230608E+02 -0.98289607342E+02  0.10443995354E+03  0.47000000000E+01 0.  1.
          5    1    3    3  503    0 -0.99228260019E+02  0.19857073682E+02 -0.50353218105E+03  0.51362174634E+03  0.47000000000E+01 0. -1.
         -5    1    3    3    0  503 -0.94440062106E+01  0.25534724023E+02 -0.38913914879E+02  0.47724146461E+02  0.47000000000E+01 0.  1.
<mgrwt>
<rscale>  0 0.14883399E+03</rscale>
<asrwt>0</asrwt>
<pdfrwt beam="1">  1        1 0.13677663E+00 0.15032992E+03</pdfrwt>
<pdfrwt beam="2">  1       -1 0.40318825E-02 0.15032992E+03</pdfrwt>
<totfact> 0.46358204E+03</totfact>
</mgrwt>
</event>
<event>
 8    1  0.1893090E-003  0.1160945E+03  0.7546771E-02  0.1251395E+00
         -1   -1    0    0    0  501 -0.00000000000E+00  0.00000000000E+00  0.24838543568E+02  0.24838543568E+02  0.00000000000E+00 0.  1.
          1   -1    0    0  501    0  0.00000000000E+00 -0.00000000000E+00 -0.76967355093E+03  0.76967355093E+03  0.00000000000E+00 0. -1.
         23    2    1    2    0    0 -0.54677623594E+02  0.36120622986E+02 -0.15258526374E+03  0.19172949474E+03  0.95831072808E+02 0.  0.
         23    2    1    2    0    0  0.54677623594E+02 -0.36120622986E+02 -0.59224974362E+03  0.60278259975E+03  0.91064602482E+02 0.  0.
          5    1    4    4  502    0  0.18256816999E+02 -0.63035457607E+02 -0.31239039857E+03  0.31924384317E+03  0.47000000000E+01 0. -1.
         -5    1    3    3    0  503  0.81912077055E+01  0.50478097676E+02 -0.71137354420E+02  0.87736807684E+02  0.47000000000E+01 0.  1.
          5    1    3    3  503    0 -0.62868831300E+02 -0.14357474690E+02 -0.81447909323E+02  0.10399268706E+03  0.47000000000E+01 0. -1.
         -5    1    4    4    0  502  0.36420806595E+02  0.26914834621E+02 -0.27985934505E+03  0.28353875658E+03  0.47000000000E+01 0.  1.
<mgrwt>
<rscale>  0 0.11510641E+03</rscale>
<asrwt>0</asrwt>
<pdfrwt beam="1">  1        1 0.11841129E+00 0.11609452E+03</pdfrwt>
<pdfrwt beam="2">  1       -1 0.38213151E-02 0.11609452E+03</pdfrwt>
<totfact> 0.61778500E+03</totfact>
</mgrwt>
</event>
<event>
 8    1  0.1893090E-003  0.1068980E+03  0.7546771E-02  0.1269018E+00
          1   -1    0    0  501    0  0.00000000000E+00  0.00000000000E+00  0.74178629057E+02  0.74178629057E+02  0.00000000000E+00 0. -1.
         -1   -1    0    0    0  501 -0.00000000000E+00 -0.00000000000E+00 -0.15500591323E+03  0.15500591323E+03  0.00000000000E+00 0.  1.
         23    2    1    2    0    0 -0.35507263189E+02  0.26884794782E+02 -0.66162594590E+02  0.12128530169E+03  0.91373286876E+02 0.  0.
         23    2    1    2    0    0  0.35507263189E+02 -0.26884794782E+02 -0.14664689579E+02  0.10789924059E+03  0.97178367291E+02 0.  0.
          5    1    4    4  502    0 -0.50206130689E+01 -0.45229972412E+02  0.21333744124E+02  0.50479457191E+02  0.47000000000E+01 0. -1.
         -5    1    4    4    0  502  0.40527876257E+02  0.18345177630E+02 -0.35998433703E+02  0.57419783396E+02  0.47000000000E+01 0.  1.
          5    1    3    3  503    0 -0.38002076984E+02 -0.18926627652E+02 -0.26522278488E+01  0.42796020866E+02  0.47000000000E+01 0. -1.
         -5    1    3    3    0  503  0.24948137958E+01  0.45811422434E+02 -0.63510366741E+02  0.78489280828E+02  0.47000000000E+01 0.  1.
<mgrwt>
<rscale>  0 0.10556106E+03</rscale>
<asrwt>0</asrwt>
<pdfrwt beam="1">  1        1 0.11412097E-01 0.10689805E+03</pdfrwt>
<pdfrwt beam="2">  1       -1 0.23847063E-01 0.10689805E+03</pdfrwt>
<totfact> 0.75016133E+03</totfact>
</mgrwt>
</event>
<event>
 8    1  0.1893090E-003  0.9928956E+02  0.7546771E-02  0.1283707E+00
         -1   -1    0    0    0  501 -0.00000000000E+00  0.00000000000E+00  0.21240405124E+02  0.21240405124E+02  0.00000000000E+00 0.  1.
          1   -1    0    0  501    0  0.00000000000E+00 -0.00000000000E+00 -0.44782016203E+03  0.44782016203E+03  0.00000000000E+00 0. -1.
         23    2    1    2    0    0 -0.84913854956E+01 -0.28836401138E+02 -0.20729732126E+03  0.22834662270E+03  0.90919519556E+02 0.  0.
         23    2    1    2    0    0  0.84913854956E+01  0.28836401138E+02 -0.21928243564E+03  0.24071394445E+03  0.94629671965E+02 0.  0.
          5    1    4    4  502    0  0.35336103572E+02  0.48045827260E+02 -0.17718076518E+03  0.18700843639E+03  0.47000000000E+01 0. -1.
         -5    1    3    3    0  503 -0.18813318023E+02  0.28549306383E+02 -0.10474505033E+03  0.11028426633E+03  0.47000000000E+01 0.  1.
          5    1    3    3  503    0  0.10321932528E+02 -0.57385707522E+02 -0.10255227093E+03  0.11806235637E+03  0.47000000000E+01 0. -1.
         -5    1    4    4    0  502 -0.26844718076E+02 -0.19209426121E+02 -0.42101670460E+02  0.53705508060E+02  0.47000000000E+01 0.  1.
<mgrwt>
<rscale>  0 0.98395187E+02</rscale>
<asrwt>0</asrwt>
<pdfrwt beam="1">  1        1 0.68895402E-01 0.99289559E+02</pdfrwt>
<pdfrwt beam="2">  1       -1 0.32677550E-02 0.99289559E+02</pdfrwt>
<totfact> 0.15929112E+04</totfact>
</mgrwt>
</event>
<event>
 8    1  0.1893090E-003  0.2103852E+03  0.7546771E-02  0.1141366E+00
         -2   -1    0    0    0  501 -0.00000000000E+00  0.00000000000E+00  0.95343028073E+02  0.95343028073E+02  0.00000000000E+00 0.  1.
          2   -1    0    0  501    0  0.00000000000E+00 -0.00000000000E+00 -0.53259994454E+03  0.53259994454E+03  0.00000000000E+00 0. -1.
         23    2    1    2    0    0 -0.47444448322E+02 -0.18463445180E+03 -0.33230353213E+03  0.39330339914E+03  0.89000392382E+02 0.  0.
         23    2    1    2    0    0  0.47444448322E+02  0.18463445180E+03 -0.10495338434E+03  0.23463957347E+03  0.87747707009E+02 0.  0.
          5    1    3    3  502    0 -0.60260351322E+02 -0.16196985463E+03 -0.32087284341E+03  0.36448184507E+03  0.47000000000E+01 0. -1.
         -5    1    3    3    0  502  0.12815903000E+02 -0.22664597166E+02 -0.11430688723E+02  0.28821554071E+02  0.47000000000E+01 0. -1.
          5    1    4    4  503    0  0.26192464937E+01  0.24687360066E+02  0.15280633554E+02  0.29528189261E+02  0.47000000000E+01 0. -1.
         -5    1    4    4    0  503  0.44825201828E+02  0.15994709174E+03 -0.12023401789E+03  0.20511138421E+03  0.47000000000E+01 0.  1.
<mgrwt>
<rscale>  0 0.21025335E+03</rscale>
<asrwt>0</asrwt>
<pdfrwt beam="1">  1        2 0.81938453E-01 0.21038519E+03</pdfrwt>
<pdfrwt beam="2">  1       -2 0.14668158E-01 0.21038519E+03</pdfrwt>
<totfact> 0.20442660E+03</totfact>
</mgrwt>
</event>
<event>
 8    1  0.1893090E-003  0.9315738E+02  0.7546771E-02  0.1295690E+00
         -2   -1    0    0    0  501 -0.00000000000E+00  0.00000000000E+00  0.16061647220E+02  0.16061647220E+02  0.00000000000E+00 0.  1.
          2   -1    0    0  501    0  0.00000000000E+00 -0.00000000000E+00 -0.54639777753E+03  0.54639777753E+03  0.00000000000E+00 0. -1.
         23    2    1    2    0    0 -0.90977622115E+01  0.14553607130E+02 -0.30085096912E+03  0.31478678406E+03  0.91021080176E+02 0.  0.
         23    2    1    2    0    0  0.90977622115E+01 -0.14553607130E+02 -0.22948516119E+03  0.24767264070E+03  0.91562661525E+02 0.  0.
          5    1    4    4  502    0 -0.40130320177E+02 -0.99389752930E+01 -0.12968859021E+03  0.13620002298E+03  0.47000000000E+01 0. -1.
         -5    1    3    3    0  503  0.33303895512E+02 -0.15690465409E+02 -0.16719309659E+03  0.17126284392E+03  0.47000000000E+01 0.  1.
          5    1    3    3  503    0 -0.42401657724E+02  0.30244072539E+02 -0.13365787254E+03  0.14352394014E+03  0.47000000000E+01 0. -1.
         -5    1    4    4    0  502  0.49228082388E+02 -0.46146318374E+01 -0.99796570976E+02  0.11147261772E+03  0.47000000000E+01 0.  1.
<mgrwt>
<rscale>  0 0.93024031E+02</rscale>
<asrwt>0</asrwt>
<pdfrwt beam="1">  1        2 0.84061195E-01 0.93157382E+02</pdfrwt>
<pdfrwt beam="2">  1       -2 0.24710227E-02 0.93157382E+02</pdfrwt>
<totfact> 0.28655453E+04</totfact>
</mgrwt>
</event>
<event>
 8    1  0.1893090E-003  0.1170259E+03  0.7546771E-02  0.1248486E+00
         -1   -1    0    0    0  501 -0.00000000000E+00  0.00000000000E+00  0.12363848598E+03  0.12363848598E+03  0.00000000000E+00 0.  1.
          1   -1    0    0  501    0  0.00000000000E+00 -0.00000000000E+00 -0.22097189266E+03  0.22097189266E+03  0.00000000000E+00 0. -1.
         23    2    1    2    0    0 -0.13337154057E+02 -0.76098754740E+02  0.73599880484E+02  0.13745526766E+03  0.86649339577E+02 0.  0.
         23    2    1    2    0    0  0.13337154057E+02  0.76098754740E+02 -0.17093328716E+03  0.20715511098E+03  0.87898527837E+02 0.  0.
          5    1    3    3  502    0 -0.41514163294E+02 -0.32716057267E+02  0.66425720282E+02  0.85019012415E+02  0.47000000000E+01 0. -1.
         -5    1    4    4    0  503 -0.34393351184E+02  0.13606060337E+02 -0.67831247328E+02  0.77402813887E+02  0.47000000000E+01 0.  1.
          5    1    4    4  503    0  0.47730505241E+02  0.62492694403E+02 -0.10310203983E+03  0.12975229709E+03  0.47000000000E+01 0. -1.
         -5    1    3    3    0  502  0.28177009237E+02 -0.43382697473E+02  0.71741602023E+01  0.52436255245E+02  0.47000000000E+01 0.  1.
<mgrwt>
<rscale>  0 0.11679132E+03</rscale>
<asrwt>0</asrwt>
<pdfrwt beam="1">  1        1 0.33995675E-01 0.11702586E+03</pdfrwt>
<pdfrwt beam="2">  1       -1 0.19021306E-01 0.11702586E+03</pdfrwt>
<totfact> 0.27234792E+03</totfact>
</mgrwt>
</event>
<event>
 8    1  0.1893090E-003  0.9758774E+02  0.7546771E-02  0.1287438E+00
          3   -1    0    0  501    0  0.00000000000E+00  0.00000000000E+00  0.19644367313E+02  0.19644367313E+02  0.00000000000E+00 0. -1.
         -3   -1    0    0    0  501 -0.00000000000E+00 -0.00000000000E+00 -0.63042406982E+03  0.63042406982E+03  0.00000000000E+00 0.  1.
         23    2    1    2    0    0  0.22599834200E+02  0.12433167878E+02 -0.13576543332E+03  0.16513347010E+03  0.90396205086E+02 0.  0.
         23    2    1    2    0    0 -0.22599834200E+02 -0.12433167878E+02 -0.47501426919E+03  0.48493496703E+03  0.94117108696E+02 0.  0.
          5    1    4    4  502    0  0.26637927458E+02  0.10778700284E+02 -0.64092197313E+02  0.70396443912E+02  0.47000000000E+01 0. -1.
         -5    1    4    4    0  502 -0.49237761658E+02 -0.23211868162E+02 -0.41092207188E+03  0.41453852312E+03  0.47000000000E+01 0.  1.
          5    1    3    3  503    0  0.36779653785E+02 -0.23191548294E+02 -0.11085007857E+03  0.11916551835E+03  0.47000000000E+01 0. -1.
         -5    1    3    3    0  503 -0.14179819586E+02  0.35624716172E+02 -0.24915354748E+02  0.45967951750E+02  0.47000000000E+01 0.  1.
<mgrwt>
<rscale>  0 0.96679273E+02</rscale>
<asrwt>0</asrwt>
<pdfrwt beam="1">  1        3 0.30222112E-02 0.97587737E+02</pdfrwt>
<pdfrwt beam="2">  1       -3 0.96988290E-01 0.97587737E+02</pdfrwt>
<totfact> 0.10653410E+03</totfact>
</mgrwt>
</event>
<event>
 8    1  0.1893090E-003  0.1163582E+03  0.7546771E-02  0.1251340E+00
         -2   -1    0    0    0  501 -0.00000000000E+00  0.00000000000E+00  0.20507224292E+03  0.20507224292E+03  0.00000000000E+00 0.  1.
          2   -1    0    0  501    0  0.00000000000E+00 -0.00000000000E+00 -0.79565425188E+02  0.79565425188E+02  0.00000000000E+00 0. -1.
         23    2    1    2    0    0  0.66628450151E+02  0.28386663581E+02 -0.48284447240E+00  0.11635920238E+03  0.91071827696E+02 0.  0.
         23    2    1    2    0    0 -0.66628450151E+02 -0.28386663581E+02  0.12598966221E+03  0.16827846573E+03  0.84847474967E+02 0.  0.
          5    1    3    3  502    0 -0.48095808770E+01  0.22691345030E+02 -0.30427360462E+02  0.38547937327E+02  0.47000000000E+01 0. -1.
         -5    1    3    3    0  502  0.71438031028E+02  0.56953185502E+01  0.29944515989E+02  0.77811265048E+02  0.47000000000E+01 0.  1.
          5    1    4    4  503    0 -0.37152351936E+02 -0.43968230157E+01  0.11777883841E+01  0.37724083719E+02  0.47000000000E+01 0. -1.
         -5    1    4    4    0  503 -0.29476098216E+02 -0.23989840565E+02  0.12481187382E+03  0.13055438201E+03  0.47000000000E+01 0.  1.
<mgrwt>
<rscale>  0 0.11513804E+03</rscale>
<asrwt>0</asrwt>
<pdfrwt beam="1">  1        2 0.12240835E-01 0.11635820E+03</pdfrwt>
<pdfrwt beam="2">  1       -2 0.31549576E-01 0.11635820E+03</pdfrwt>
<totfact> 0.43879391E+03</totfact>
</mgrwt>
</event>
<event>
 8    1  0.1893090E-003  0.1986741E+03  0.7546771E-02  0.1150920E+00
          1   -1    0    0  501    0  0.00000000000E+00  0.00000000000E+00  0.13044417119E+04  0.13044417119E+04  0.00000000000E+00 0. -1.
         -1   -1    0    0    0  501 -0.00000000000E+00 -0.00000000000E+00 -0.31696671879E+02  0.31696671879E+02  0.00000000000E+00 0.  1.
         23    2    1    2    0    0  0.13857549904E+03  0.11453249293E+03  0.49168007219E+03  0.53020173618E+03  0.83926913418E+02 0.  0.
         23    2    1    2    0    0 -0.13857549904E+03 -0.11453249293E+03  0.78106496782E+03  0.80593664758E+03  0.84560836622E+02 0.  0.
          5    1    4    4  502    0 -0.45756425743E+02 -0.11566814465E+02  0.34757366808E+03  0.35079479249E+03  0.47000000000E+01 0. -1.
         -5    1    4    4    0  502 -0.92819073294E+02 -0.10296567846E+03  0.43349129974E+03  0.45514185509E+03  0.47000000000E+01 0.  1.
          5    1    3    3  503    0  0.22304139905E+02  0.67655375944E+02  0.14746076696E+03  0.16383373384E+03  0.47000000000E+01 0. -1.
         -5    1    3    3    0  503  0.11627135913E+03  0.46877116986E+02  0.34421930522E+03  0.36636800234E+03  0.47000000000E+01 0.  1.
<mgrwt>
<rscale>  0 0.19860681E+03</rscale>
<asrwt>0</asrwt>
<pdfrwt beam="1">  1        1 0.20068330E+00 0.19867409E+03</pdfrwt>
<pdfrwt beam="2">  1       -1 0.48764121E-02 0.19867409E+03</pdfrwt>
<totfact> 0.17713966E+03</totfact>
</mgrwt>
</event>
<event>
 7    1  0.1893090E-003  0.2185258E+03  0.7546771E-02  0.1166127E+00
          1   -1    0    0  501    0  0.00000000000E+00  0.00000000000E+00  0.60104617699E+03  0.60104617699E+03  0.00000000000E+00 0. -1.
         -1   -1    0    0    0  501 -0.00000000000E+00 -0.00000000000E+00 -0.29984950440E+03  0.29984950440E+03  0.00000000000E+00 0.  1.
         23    2    1    2    0    0  0.33831398626E+02  0.39979459718E+02 -0.26988721345E+03  0.28942997182E+03  0.90485799284E+02 0.  0.
          5    1    3    3  502    0  0.30666036409E+02 -0.18076969878E+02 -0.47645410185E+02  0.59660353173E+02  0.47000000000E+01 0. -1.
         -5    1    1    2    0  503 -0.78487362486E+02  0.57878219087E+01  0.67418541467E+02  0.10373579269E+03  0.47000000000E+01 0.  1.
          5    1    1    2  503    0  0.44655963860E+02 -0.45767281627E+02  0.50366534457E+03  0.50772991688E+03  0.47000000000E+01 0. -1.
         -5    1    3    3    0  502  0.31653622172E+01  0.58056429596E+02 -0.22224180326E+03  0.22976961865E+03  0.47000000000E+01 0.  1.
<mgrwt>
<rscale>  0 0.18174291E+03</rscale>
<asrwt>0</asrwt>
<pdfrwt beam="1">  1        1 0.92468642E-01 0.21852576E+03</pdfrwt>
<pdfrwt beam="2">  1       -1 0.46130693E-01 0.21852576E+03</pdfrwt>
<totfact> 0.17056303E+02</totfact>
</mgrwt>
</event>
<event>
 8    1  0.1893090E-003  0.9916487E+02  0.7546771E-02  0.1283797E+00
          1   -1    0    0  501    0  0.00000000000E+00  0.00000000000E+00  0.17821973192E+03  0.17821973192E+03  0.00000000000E+00 0. -1.
         -1   -1    0    0    0  501 -0.00000000000E+00 -0.00000000000E+00 -0.91793700555E+02  0.91793700555E+02  0.00000000000E+00 0.  1.
         23    2    1    2    0    0 -0.25661570456E+02  0.15510793610E+02 -0.43670874165E+02  0.10835504882E+03  0.94522856695E+02 0.  0.
         23    2    1    2    0    0  0.25661570456E+02 -0.15510793610E+02  0.13009690553E+03  0.16165838366E+03  0.91154414379E+02 0.  0.
          5    1    4    4  502    0  0.46382633900E+02 -0.22956549215E+02  0.12904989536E+03  0.13911979504E+03  0.47000000000E+01 0. -1.
         -5    1    4    4    0  502 -0.20721063444E+02  0.74457556051E+01  0.10470101776E+01  0.22538588622E+02  0.47000000000E+01 0.  1.
          5    1    3    3  503    0  0.20778285323E+02  0.43112538571E+01  0.19373672659E+02  0.29116202415E+02  0.47000000000E+01 0. -1.
         -5    1    3    3    0  503 -0.46439855778E+02  0.11199539753E+02 -0.63044546824E+02  0.79238846405E+02  0.47000000000E+01 0.  1.
<mgrwt>
<rscale>  0 0.98353630E+02</rscale>
<asrwt>0</asrwt>
<pdfrwt beam="1">  1        1 0.27418420E-01 0.99164870E+02</pdfrwt>
<pdfrwt beam="2">  1       -1 0.14122108E-01 0.99164870E+02</pdfrwt>
<totfact> 0.56103330E+03</totfact>
</mgrwt>
</event>
<event>
 8    1  0.1893090E-003  0.9239050E+02  0.7546771E-02  0.1297312E+00
          1   -1    0    0  501    0  0.00000000000E+00  0.00000000000E+00  0.11165850103E+03  0.11165850103E+03  0.00000000000E+00 0. -1.
         -1   -1    0    0    0  501 -0.00000000000E+00 -0.00000000000E+00 -0.24138234332E+03  0.24138234332E+03  0.00000000000E+00 0.  1.
         23    2    1    2    0    0 -0.66133964057E+01  0.61576541113E+01  0.81172784078E+02  0.12279447490E+03  0.91694102723E+02 0.  0.
         23    2    1    2    0    0  0.66133964057E+01 -0.61576541113E+01 -0.21089662638E+03  0.23024636945E+03  0.91947538919E+02 0.  0.
          5    1    3    3  502    0  0.27999336602E+02 -0.29292538313E+02  0.25444207201E+02  0.48078200165E+02  0.47000000000E+01 0. -1.
         -5    1    4    4    0  503 -0.42053041796E+02 -0.89034721910E+01 -0.10607528624E+03  0.11455036662E+03  0.47000000000E+01 0.  1.
          5    1    4    4  503    0  0.48666438202E+02  0.27458180797E+01 -0.10482134013E+03  0.11569600283E+03  0.47000000000E+01 0. -1.
         -5    1    3    3    0  502 -0.34612733008E+02  0.35450192425E+02  0.55728576877E+02  0.74716274733E+02  0.47000000000E+01 0.  1.
<mgrwt>
<rscale>  0 0.92327376E+02</rscale>
<asrwt>0</asrwt>
<pdfrwt beam="1">  1        1 0.17178231E-01 0.92390495E+02</pdfrwt>
<pdfrwt beam="2">  1       -1 0.37135745E-01 0.92390495E+02</pdfrwt>
<totfact> 0.20981543E+03</totfact>
</mgrwt>
</event>
<event>
 8    1  0.1893090E-003  0.1007852E+03  0.7546771E-02  0.1279289E+00
         -1   -1    0    0    0  501 -0.00000000000E+00  0.00000000000E+00  0.15865517372E+02  0.15865517372E+02  0.00000000000E+00 0.  1.
          1   -1    0    0  501    0  0.00000000000E+00 -0.00000000000E+00 -0.86942953723E+03  0.86942953723E+03  0.00000000000E+00 0. -1.
         23    2    1    2    0    0 -0.39995336265E+02 -0.46659357146E+01 -0.65971317171E+03  0.66736730588E+03  0.92391851142E+02 0.  0.
         23    2    1    2    0    0  0.39995336265E+02  0.46659357146E+01 -0.19385084815E+03  0.21792774872E+03  0.91065660124E+02 0.  0.
          5    1    3    3  502    0 -0.65706574472E+02 -0.42048142316E+01 -0.57327430240E+03  0.57706199857E+03  0.47000000000E+01 0. -1.
         -5    1    3    3    0  502  0.25711238207E+02 -0.46112148295E+00 -0.86438869305E+02  0.90305307319E+02  0.47000000000E+01 0.  1.
          5    1    4    4  503    0 -0.26626537843E+02  0.15682347689E+02 -0.50347944911E+02  0.59261404837E+02  0.47000000000E+01 0. -1.
         -5    1    4    4    0  503  0.66621874108E+02 -0.11016411975E+02 -0.14350290324E+03  0.15866634388E+03  0.47000000000E+01 0.  1.
<mgrwt>
<rscale>  0 0.10048021E+03</rscale>
<asrwt>0</asrwt>
<pdfrwt beam="1">  1        1 0.13375842E+00 0.10078518E+03</pdfrwt>
<pdfrwt beam="2">  1       -1 0.24408482E-02 0.10078518E+03</pdfrwt>
<totfact> 0.97536866E+03</totfact>
</mgrwt>
</event>
<event>
 8    1  0.1893090E-003  0.1039293E+03  0.7546771E-02  0.1272453E+00
          2   -1    0    0  501    0  0.00000000000E+00  0.00000000000E+00  0.14727516498E+04  0.14727516498E+04  0.00000000000E+00 0. -1.
         -2   -1    0    0    0  501 -0.00000000000E+00 -0.00000000000E+00 -0.78092068652E+01  0.78092068652E+01  0.00000000000E+00 0.  1.
         23    2    1    2    0    0 -0.47726361798E+02 -0.13015101426E+02  0.91927496998E+03  0.92508421427E+03  0.90923784492E+02 0.  0.
         23    2    1    2    0    0  0.47726361798E+02  0.13015101426E+02  0.54566747295E+03  0.55547664239E+03  0.91400824553E+02 0.  0.
          5    1    4    4  502    0  0.29826496425E+02  0.52064804634E+02  0.34478732900E+03  0.35000108001E+03  0.47000000000E+01 0. -1.
         -5    1    4    4    0  502  0.17899865373E+02 -0.39049703208E+02  0.20088014396E+03  0.20547556238E+03  0.47000000000E+01 0.  1.
          5    1    3    3  503    0 -0.22282278285E+02  0.39133143915E+02  0.41091867871E+03  0.41340555558E+03  0.47000000000E+01 0. -1.
         -5    1    3    3    0  503 -0.25444083513E+02 -0.52148245341E+02  0.50835629127E+03  0.51167865869E+03  0.47000000000E+01 0.  1.
<mgrwt>
<rscale>  0 0.10382437E+03</rscale>
<asrwt>0</asrwt>
<pdfrwt beam="1">  1        2 0.22657696E+00 0.10392935E+03</pdfrwt>
<pdfrwt beam="2">  1       -2 0.12014176E-02 0.10392935E+03</pdfrwt>
<totfact> 0.21770249E+04</totfact>
</mgrwt>
</event>
<event>
 8    1  0.1893090E-003  0.1084792E+03  0.7546771E-02  0.1263656E+00
          1   -1    0    0  501    0  0.00000000000E+00  0.00000000000E+00  0.52295842127E+03  0.52295842127E+03  0.00000000000E+00 0. -1.
         -1   -1    0    0    0  501 -0.00000000000E+00 -0.00000000000E+00 -0.25714080443E+02  0.25714080443E+02  0.00000000000E+00 0.  1.
         23    2    1    2    0    0  0.54935593643E+02 -0.16135334054E+02  0.15058291067E+03  0.18558813589E+03  0.92138345670E+02 0.  0.
         23    2    1    2    0    0 -0.54935593643E+02  0.16135334054E+02  0.34666143016E+03  0.36308436582E+03  0.91530547325E+02 0.  0.
          5    1    3    3  502    0  0.92617871602E+01 -0.28995992293E+02  0.13009417251E+03  0.13369043343E+03  0.47000000000E+01 0. -1.
         -5    1    3    3    0  502  0.45673806482E+02  0.12860658240E+02  0.20488738163E+02  0.51897702458E+02  0.47000000000E+01 0.  1.
          5    1    4    4  503    0 -0.69647121131E+02  0.38992983876E+02  0.27106586715E+03  0.28261275379E+03  0.47000000000E+01 0. -1.
         -5    1    4    4    0  503  0.14711527488E+02 -0.22857649822E+02  0.75595563009E+02  0.80471612032E+02  0.47000000000E+01 0.  1.
<mgrwt>
<rscale>  0 0.10835006E+03</rscale>
<asrwt>0</asrwt>
<pdfrwt beam="1">  1        1 0.80455134E-01 0.10847923E+03</pdfrwt>
<pdfrwt beam="2">  1       -1 0.39560128E-02 0.10847923E+03</pdfrwt>
<totfact> 0.99621601E+03</totfact>
</mgrwt>
</event>
<event>
 8    1  0.1893090E-003  0.1499038E+03  0.7546771E-02  0.1201015E+00
          2   -1    0    0  501    0  0.00000000000E+00  0.00000000000E+00  0.44672679671E+03  0.44672679671E+03  0.00000000000E+00 0. -1.
         -2   -1    0    0    0  501 -0.00000000000E+00 -0.00000000000E+00 -0.71343684635E+02  0.71343684635E+02  0.00000000000E+00 0.  1.
         23    2    1    2    0    0 -0.10279724474E+03  0.57628707190E+02  0.32929209967E+03  0.36124083484E+03  0.90406373874E+02 0.  0.
         23    2    1    2    0    0  0.10279724474E+03 -0.57628707190E+02  0.46091012404E+02  0.15682964650E+03  0.92643484275E+02 0.  0.
          5    1    4    4  502    0 -0.18516254884E+01 -0.36570640422E+02 -0.69064101512E+01  0.37558338076E+02  0.47000000000E+01 0. -1.
         -5    1    4    4    0  502  0.10464887023E+03 -0.21058066768E+02  0.52997422555E+02  0.11927130842E+03  0.47000000000E+01 0.  1.
          5    1    3    3  503    0 -0.31344695283E+02  0.11212386424E+02  0.22013008819E+03  0.22268262900E+03  0.47000000000E+01 0. -1.
         -5    1    3    3    0  503 -0.71452549454E+02  0.46416320766E+02  0.10916201148E+03  0.13855820585E+03  0.47000000000E+01 0.  1.
<mgrwt>
<rscale>  0 0.14955960E+03</rscale>
<asrwt>0</asrwt>
<pdfrwt beam="1">  1        2 0.68727198E-01 0.14990382E+03</pdfrwt>
<pdfrwt beam="2">  1       -2 0.10975952E-01 0.14990382E+03</pdfrwt>
<totfact> 0.39224064E+03</totfact>
</mgrwt>
</event>
<event>
 8    1  0.1893090E-003  0.1006484E+03  0.7546771E-02  0.1283021E+00
          2   -1    0    0  501    0  0.00000000000E+00  0.00000000000E+00  0.17859786433E+03  0.17859786433E+03  0.00000000000E+00 0. -1.
         -2   -1    0    0    0  501 -0.00000000000E+00 -0.00000000000E+00 -0.58258695097E+02  0.58258695097E+02  0.00000000000E+00 0.  1.
         23    2    1    2    0    0  0.30951900257E+02 -0.29664374842E+02  0.95060582856E+02  0.13308220657E+03  0.82682307834E+02 0.  0.
         23    2    1    2    0    0 -0.30951900257E+02  0.29664374842E+02  0.25278586374E+02  0.10377435285E+03  0.91061046099E+02 0.  0.
          5    1    3    3  502    0 -0.16619581816E+02 -0.40437537017E+02  0.48893335910E+02  0.65757533379E+02  0.47000000000E+01 0. -1.
         -5    1    4    4    0  503 -0.57423297651E+02  0.40500742264E+02  0.10393799704E+02  0.71188947944E+02  0.47000000000E+01 0.  1.
          5    1    4    4  503    0  0.26471397394E+02 -0.10836367422E+02  0.14884786670E+02  0.32585404909E+02  0.47000000000E+01 0. -1.
         -5    1    3    3    0  502  0.47571482073E+02  0.10773162175E+02  0.46167246947E+02  0.67324673193E+02  0.47000000000E+01 0.  1.
<mgrwt>
<rscale>  0 0.98715415E+02</rscale>
<asrwt>0</asrwt>
<pdfrwt beam="1">  1        2 0.27476594E-01 0.10064844E+03</pdfrwt>
<pdfrwt beam="2">  1       -2 0.89628762E-02 0.10064844E+03</pdfrwt>
<totfact> 0.13916400E+04</totfact>
</mgrwt>
</event>
<event>
 8    1  0.1893090E-003  0.1509382E+03  0.7546771E-02  0.1200032E+00
         -1   -1    0    0    0  501 -0.00000000000E+00  0.00000000000E+00  0.10069711043E+04  0.10069711043E+04  0.00000000000E+00 0.  1.
          1   -1    0    0  501    0  0.00000000000E+00 -0.00000000000E+00 -0.22689708501E+02  0.22689708501E+02  0.00000000000E+00 0. -1.
         23    2    1    2    0    0  0.11575845054E+03  0.30215802850E+02  0.55754618414E+03  0.57701824475E+03  0.88200304477E+02 0.  0.
         23    2    1    2    0    0 -0.11575845054E+03 -0.30215802850E+02  0.42673521167E+03  0.45264256807E+03  0.92029016783E+02 0.  0.
          5    1    4    4  502    0 -0.64663909518E+01 -0.20990431303E+02  0.16229645125E+02  0.27711077192E+02  0.47000000000E+01 0. -1.
         -5    1    4    4    0  502 -0.10929205959E+03 -0.92253715469E+01  0.41050556655E+03  0.42493149087E+03  0.47000000000E+01 0.  1.
          5    1    3    3  503    0  0.76849536047E+02 -0.86157000519E+01  0.18740068615E+03  0.20278360054E+03  0.47000000000E+01 0. -1.
         -5    1    3    3    0  503  0.38908914497E+02  0.38831502902E+02  0.37014549798E+03  0.37423464420E+03  0.47000000000E+01 0.  1.
<mgrwt>
<rscale>  0 0.15035906E+03</rscale>
<asrwt>0</asrwt>
<pdfrwt beam="1">  1        1 0.34907252E-02 0.15093824E+03</pdfrwt>
<pdfrwt beam="2">  1       -1 0.15491860E+00 0.15093824E+03</pdfrwt>
<totfact> 0.94223756E+02</totfact>
</mgrwt>
</event>
<event>
 8    1  0.1893090E-003  0.9803631E+02  0.7546771E-02  0.1287734E+00
          1   -1    0    0  501    0  0.00000000000E+00  0.00000000000E+00  0.71337472445E+02  0.71337472445E+02  0.00000000000E+00 0. -1.
         -1   -1    0    0    0  501 -0.00000000000E+00 -0.00000000000E+00 -0.13351902723E+03  0.13351902723E+03  0.00000000000E+00 0.  1.
         23    2    1    2    0    0  0.15037858012E+02  0.15158669795E+02 -0.54906378634E+02  0.11236470763E+03  0.95682781427E+02 0.  0.
         23    2    1    2    0    0 -0.15037858012E+02 -0.15158669795E+02 -0.72751761464E+01  0.92491792044E+02  0.89698834798E+02 0.  0.
          5    1    4    4  502    0 -0.15540037338E+02  0.35785902136E+02  0.57026945560E+01  0.39708113495E+02  0.47000000000E+01 0. -1.
         -5    1    3    3    0  503  0.91373788723E+01 -0.28710407376E+02 -0.60254854214E+02  0.67531597351E+02  0.47000000000E+01 0.  1.
          5    1    3    3  503    0  0.59004791401E+01  0.43869077171E+02  0.53484755801E+01  0.44833110275E+02  0.47000000000E+01 0. -1.
         -5    1    4    4    0  502  0.50217932524E+00 -0.50944571930E+02 -0.12977870702E+02  0.52783678550E+02  0.47000000000E+01 0.  1.
<mgrwt>
<rscale>  0 0.96544844E+02</rscale>
<asrwt>0</asrwt>
<pdfrwt beam="1">  1        1 0.10974996E-01 0.98036305E+02</pdfrwt>
<pdfrwt beam="2">  1       -1 0.20541389E-01 0.98036305E+02</pdfrwt>
<totfact> 0.99611919E+03</totfact>
</mgrwt>
</event>
<event>
 8    1  0.1893090E-003  0.9144133E+02  0.7546771E-02  0.1299548E+00
          2   -1    0    0  501    0  0.00000000000E+00  0.00000000000E+00  0.69783378673E+03  0.69783378673E+03  0.00000000000E+00 0. -1.
         -2   -1    0    0    0  501 -0.00000000000E+00 -0.00000000000E+00 -0.62572007613E+02  0.62572007613E+02  0.00000000000E+00 0.  1.
         23    2    1    2    0    0 -0.34628148567E+01  0.43959298175E+01 -0.24431287242E+02  0.94405449581E+02  0.91017502869E+02 0.  0.
         23    2    1    2    0    0  0.34628148567E+01 -0.43959298175E+01  0.65969306636E+03  0.66600034477E+03  0.91269941020E+02 0.  0.
          5    1    3    3  502    0  0.24240683249E+02 -0.28628953457E+02  0.99200157521E+01  0.39086115347E+02  0.47000000000E+01 0. -1.
         -5    1    3    3    0  502 -0.27703498106E+02  0.33024883274E+02 -0.34351302995E+02  0.55319334233E+02  0.47000000000E+01 0.  1.
          5    1    4    4  503    0  0.46040096271E+02  0.70722022676E+01  0.36477730757E+03  0.36776933073E+03  0.47000000000E+01 0. -1.
         -5    1    4    4    0  503 -0.42577281415E+02 -0.11468132085E+02  0.29491575880E+03  0.29823101404E+03  0.47000000000E+01 0.  1.
<mgrwt>
<rscale>  0 0.91378277E+02</rscale>
<asrwt>0</asrwt>
<pdfrwt beam="1">  1        2 0.10735904E+00 0.91441333E+02</pdfrwt>
<pdfrwt beam="2">  1       -2 0.96264632E-02 0.91441333E+02</pdfrwt>
<totfact> 0.28663556E+03</totfact>
</mgrwt>
</event>
<event>
 8    1  0.1893090E-003  0.9568231E+02  0.7546771E-02  0.1289851E+00
          2   -1    0    0  501    0  0.00000000000E+00  0.00000000000E+00  0.14378884776E+03  0.14378884776E+03  0.00000000000E+00 0. -1.
         -2   -1    0    0    0  501 -0.00000000000E+00 -0.00000000000E+00 -0.11773346777E+03  0.11773346777E+03  0.00000000000E+00 0.  1.
         23    2    1    2    0    0  0.22820429460E+02  0.12783604157E+02 -0.75767198888E+02  0.12204823805E+03  0.92037554548E+02 0.  0.
         23    2    1    2    0    0 -0.22820429460E+02 -0.12783604157E+02  0.10182257888E+03  0.13947407748E+03  0.91656904728E+02 0.  0.
          5    1    4    4  502    0 -0.38492873320E+02  0.38939893089E+01  0.10840734459E+03  0.11520028998E+03  0.47000000000E+01 0. -1.
         -5    1    3    3    0  503  0.56039641737E+02  0.35266838972E+01 -0.27927789993E+02  0.62888237368E+02  0.47000000000E+01 0.  1.
          5    1    3    3  503    0 -0.33219212277E+02  0.92569202596E+01 -0.47839408895E+02  0.59160000680E+02  0.47000000000E+01 0. -1.
         -5    1    4    4    0  502  0.15672443860E+02 -0.16677593466E+02 -0.65847657147E+01  0.24273787505E+02  0.47000000000E+01 0.  1.
<mgrwt>
<rscale>  0 0.95590653E+02</rscale>
<asrwt>0</asrwt>
<pdfrwt beam="1">  1        2 0.22121361E-01 0.95682308E+02</pdfrwt>
<pdfrwt beam="2">  1       -2 0.18112841E-01 0.95682308E+02</pdfrwt>
<totfact> 0.57154041E+03</totfact>
</mgrwt>
</event>
<event>
 8    1  0.1893090E-003  0.9917109E+02  0.7546771E-02  0.1283522E+00
         -1   -1    0    0    0  501 -0.00000000000E+00  0.00000000000E+00  0.46338313488E+03  0.46338313488E+03  0.00000000000E+00 0.  1.
          1   -1    0    0  501    0  0.00000000000E+00 -0.00000000000E+00 -0.21439494835E+02  0.21439494835E+02  0.00000000000E+00 0. -1.
         23    2    1    2    0    0 -0.21097182627E+02 -0.36699198847E+02  0.17130891189E+03  0.19658997898E+03  0.86654222252E+02 0.  0.
         23    2    1    2    0    0  0.21097182627E+02  0.36699198847E+02  0.27063472816E+03  0.28823265074E+03  0.89682676987E+02 0.  0.
          5    1    4    4  502    0 -0.60045757884E+01 -0.27360191954E+02  0.60503938554E+02  0.66838997709E+02  0.47000000000E+01 0. -1.
         -5    1    3    3    0  503  0.25357436519E+02  0.12400502569E+02  0.47516802811E+02  0.55468086321E+02  0.47000000000E+01 0.  1.
          5    1    3    3  503    0 -0.46454619146E+02 -0.49099701415E+02  0.12379210908E+03  0.14112189266E+03  0.47000000000E+01 0. -1.
         -5    1    4    4    0  502  0.27101758415E+02  0.64059390801E+02  0.21013078961E+03  0.22139365303E+03  0.47000000000E+01 0.  1.
<mgrwt>
<rscale>  0 0.98481419E+02</rscale>
<asrwt>0</asrwt>
<pdfrwt beam="1">  1        1 0.32983842E-02 0.99171089E+02</pdfrwt>
<pdfrwt beam="2">  1       -1 0.71289705E-01 0.99171089E+02</pdfrwt>
<totfact> 0.57194492E+03</totfact>
</mgrwt>
</event>
<event>
 8    1  0.1893090E-003  0.1121949E+03  0.7546771E-02  0.1259272E+00
          1   -1    0    0  501    0  0.00000000000E+00  0.00000000000E+00  0.14851968899E+04  0.14851968899E+04  0.00000000000E+00 0. -1.
         -1   -1    0    0    0  501 -0.00000000000E+00 -0.00000000000E+00 -0.84209619580E+01  0.84209619580E+01  0.00000000000E+00 0.  1.
         23    2    1    2    0    0 -0.27913595469E+02  0.49047217289E+02  0.59835129206E+03  0.60877906907E+03  0.96968489127E+02 0.  0.
         23    2    1    2    0    0  0.27913595469E+02 -0.49047217289E+02  0.87842463589E+03  0.88483878281E+03  0.90138960933E+02 0.  0.
          5    1    3    3  502    0 -0.26563129329E+02 -0.20224636474E+02  0.32501916372E+03  0.32676319031E+03  0.47000000000E+01 0. -1.
         -5    1    3    3    0  502 -0.13504661398E+01  0.69271853763E+02  0.27333212835E+03  0.28201587875E+03  0.47000000000E+01 0.  1.
          5    1    4    4  503    0  0.34745913687E+02 -0.73008050772E+02  0.66707723849E+03  0.67197588209E+03  0.47000000000E+01 0. -1.
         -5    1    4    4    0  503 -0.68323182178E+01  0.23960833483E+02  0.21134739740E+03  0.21286290072E+03  0.47000000000E+01 0.  1.
<mgrwt>
<rscale>  0 0.11070360E+03</rscale>
<asrwt>0</asrwt>
<pdfrwt beam="1">  1        1 0.22849162E+00 0.11219486E+03</pdfrwt>
<pdfrwt beam="2">  1       -1 0.12955338E-02 0.11219486E+03</pdfrwt>
<totfact> 0.91261381E+03</totfact>
</mgrwt>
</event>
<event>
 7    1  0.1893090E-003  0.1875097E+03  0.7546771E-02  0.1180691E+00
         -2   -1    0    0    0  501 -0.00000000000E+00  0.00000000000E+00  0.23641017791E+03  0.23641017791E+03  0.00000000000E+00 0.  1.
          2   -1    0    0  501    0  0.00000000000E+00 -0.00000000000E+00 -0.99389784571E+02  0.99389784571E+02  0.00000000000E+00 0. -1.
         23    2    1    2    0    0 -0.75282238368E+02 -0.26709123851E+02  0.59516595014E+02  0.13290413289E+03  0.87980058799E+02 0.  0.
          5    1    3    3  502    0 -0.67908797375E+01  0.27696334289E+02  0.26747314401E+02  0.39379078307E+02  0.47000000000E+01 0. -1.
         -5    1    1    2    0  503  0.60247991173E+02  0.86106289872E+01  0.13085809850E+03  0.14439492829E+03  0.47000000000E+01 0.  1.
          5    1    1    2  503    0  0.15034247195E+02  0.18098494864E+02 -0.53354300181E+02  0.58500901300E+02  0.47000000000E+01 0. -1.
         -5    1    3    3    0  502 -0.68491358631E+02 -0.54405458140E+02  0.32769280614E+02  0.93525054581E+02  0.47000000000E+01 0.  1.
<mgrwt>
<rscale>  0 0.16730235E+03</rscale>
<asrwt>0</asrwt>
<pdfrwt beam="1">  1        2 0.15290736E-01 0.18750968E+03</pdfrwt>
<pdfrwt beam="2">  1       -2 0.36370796E-01 0.18750968E+03</pdfrwt>
<totfact> 0.26667673E+03</totfact>
</mgrwt>
</event>
<event>
 8    1  0.2139198E-003  0.9487953E+02  0.7546771E-02  0.1293504E+00
          2   -1    0    0  501    0  0.00000000000E+00  0.00000000000E+00  0.49670412090E+03  0.49670412090E+03  0.00000000000E+00 0. -1.
         -2   -1    0    0    0  501 -0.00000000000E+00 -0.00000000000E+00 -0.57117440060E+02  0.57117440060E+02  0.00000000000E+00 0.  1.
         23    2    1    2    0    0 -0.54720632621E+01  0.55732080783E+01  0.44926481297E+03  0.45844970435E+03  0.90973925495E+02 0.  0.
         23    2    1    2    0    0  0.54720632621E+01 -0.55732080783E+01 -0.96781321306E+01  0.95371856610E+02  0.94557499264E+02 0.  0.
          5    1    3    3  502    0 -0.47258059691E+02  0.91329514065E+01  0.21046632875E+03  0.21595115315E+03  0.47000000000E+01 0. -1.
         -5    1    4    4    0  503  0.43639590188E+02 -0.87766072482E+01 -0.27850601934E+02  0.52718011103E+02  0.47000000000E+01 0.  1.
          5    1    4    4  503    0 -0.38167526926E+02  0.32033991698E+01  0.18172469803E+02  0.42653845508E+02  0.47000000000E+01 0. -1.
         -5    1    3    3    0  502  0.41785996429E+02 -0.35597433282E+01  0.23879848422E+03  0.24249855120E+03  0.47000000000E+01 0.  1.
<mgrwt>
<rscale>  0 0.93973910E+02</rscale>
<asrwt>0</asrwt>
<pdfrwt beam="1">  1        2 0.76416015E-01 0.94879528E+02</pdfrwt>
<pdfrwt beam="2">  1       -2 0.87872988E-02 0.94879528E+02</pdfrwt>
<totfact> 0.48353887E+03</totfact>
</mgrwt>
</event>
<event>
 8    1  0.1893090E-003  0.9669223E+02  0.7546771E-02  0.1289806E+00
          3   -1    0    0  501    0  0.00000000000E+00  0.00000000000E+00  0.95146682787E+01  0.95146682787E+01  0.00000000000E+00 0. -1.
         -3   -1    0    0    0  501 -0.00000000000E+00 -0.00000000000E+00 -0.99282112215E+03  0.99282112215E+03  0.00000000000E+00 0.  1.
         23    2    1    2    0    0  0.15854923104E+02  0.23714327687E+02 -0.59689249438E+03  0.60400786663E+03  0.87926703456E+02 0.  0.
         23    2    1    2    0    0 -0.15854923104E+02 -0.23714327687E+02 -0.38641395949E+03  0.39832792380E+03  0.92388521273E+02 0.  0.
          5    1    4    4  502    0  0.13670881542E+02 -0.52509345893E+02 -0.24293953021E+03  0.24896953578E+03  0.47000000000E+01 0. -1.
         -5    1    4    4    0  502 -0.29525804646E+02  0.28795018206E+02 -0.14347442929E+03  0.14935838802E+03  0.47000000000E+01 0.  1.
          5    1    3    3  503    0  0.51501489091E+02  0.54385394265E+01 -0.35030948979E+03  0.35414800539E+03  0.47000000000E+01 0. -1.
         -5    1    3    3    0  503 -0.35646565988E+02  0.18275788260E+02 -0.24658300459E+03  0.24985986123E+03  0.47000000000E+01 0.  1.
<mgrwt>
<rscale>  0 0.95610755E+02</rscale>
<asrwt>0</asrwt>
<pdfrwt beam="1">  1        3 0.14637965E-02 0.96692227E+02</pdfrwt>
<pdfrwt beam="2">  1       -3 0.15274156E+00 0.96692227E+02</pdfrwt>
<totfact> 0.10969803E+03</totfact>
</mgrwt>
</event>
<event>
 8    1  0.1893090E-003  0.1015583E+03  0.7546771E-02  0.1278451E+00
          1   -1    0    0  501    0  0.00000000000E+00  0.00000000000E+00  0.52063608100E+03  0.52063608100E+03  0.00000000000E+00 0. -1.
         -1   -1    0    0    0  501 -0.00000000000E+00 -0.00000000000E+00 -0.33669319077E+02  0.33669319077E+02  0.00000000000E+00 0.  1.
         23    2    1    2    0    0  0.25990143145E+02  0.34349282715E+02  0.60521964232E+02  0.11593427195E+03  0.89008350704E+02 0.  0.
         23    2    1    2    0    0 -0.25990143145E+02 -0.34349282715E+02  0.42644479769E+03  0.43837112812E+03  0.91971298410E+02 0.  0.
          5    1    4    4  502    0  0.21920104478E+02 -0.55445642230E+01  0.29414521461E+02  0.37397021880E+02  0.47000000000E+01 0.  1.
         -5    1    3    3    0  503 -0.24532254925E+01  0.31777561144E+02 -0.14643626680E+02  0.35388663579E+02  0.47000000000E+01 0.  1.
          5    1    3    3  503    0  0.28443368638E+02  0.25717215715E+01  0.75165590912E+02  0.80545608374E+02  0.47000000000E+01 0. -1.
         -5    1    4    4    0  502 -0.47910247623E+02 -0.28804718492E+02  0.39703027623E+03  0.40097410624E+03  0.47000000000E+01 0. -1.
<mgrwt>
<rscale>  0 0.10088274E+03</rscale>
<asrwt>0</asrwt>
<pdfrwt beam="1">  1        1 0.80097853E-01 0.10155826E+03</pdfrwt>
<pdfrwt beam="2">  1       -1 0.51798956E-02 0.10155826E+03</pdfrwt>
<totfact> 0.67206820E+03</totfact>
</mgrwt>
</event>
<event>
 8    1  0.1893090E-003  0.1315962E+03  0.7546771E-02  0.1225579E+00
         -1   -1    0    0    0  501 -0.00000000000E+00  0.00000000000E+00  0.50807630890E+02  0.50807630890E+02  0.00000000000E+00 0.  1.
          1   -1    0    0  501    0  0.00000000000E+00 -0.00000000000E+00 -0.35701789240E+03  0.35701789240E+03  0.00000000000E+00 0. -1.
         23    2    1    2    0    0 -0.32793364467E+02 -0.88732271538E+02 -0.20005163749E+03  0.23874798144E+03  0.89616517539E+02 0.  0.
         23    2    1    2    0    0  0.32793364467E+02  0.88732271538E+02 -0.10615862403E+03  0.16907754185E+03  0.91480822787E+02 0.  0.
          5    1    3    3  502    0 -0.20548798922E+02 -0.53236611051E+02 -0.19160241978E+03  0.19997491633E+03  0.47000000000E+01 0. -1.
         -5    1    3    3    0  502 -0.12244565545E+02 -0.35495660487E+02 -0.84492177086E+01  0.38773065118E+02  0.47000000000E+01 0.  1.
          5    1    4    4  503    0 -0.83839040349E+01  0.88887977836E+02 -0.63948967150E+02  0.10992234918E+03  0.47000000000E+01 0. -1.
         -5    1    4    4    0  503  0.41177268502E+02 -0.15570629848E+00 -0.42209656875E+02  0.59155192665E+02  0.47000000000E+01 0.  1.
<mgrwt>
<rscale>  0 0.13127274E+03</rscale>
<asrwt>0</asrwt>
<pdfrwt beam="1">  1        1 0.54925828E-01 0.13159621E+03</pdfrwt>
<pdfrwt beam="2">  1       -1 0.78165588E-02 0.13159621E+03</pdfrwt>
<totfact> 0.59796577E+03</totfact>
</mgrwt>
</event>
<event>
 7    1  0.1893090E-003  0.1455892E+03  0.7546771E-02  0.1219228E+00
         -1   -1    0    0    0  501 -0.00000000000E+00  0.00000000000E+00  0.24135667850E+03  0.24135667850E+03  0.00000000000E+00 0.  1.
          1   -1    0    0  501    0  0.00000000000E+00 -0.00000000000E+00 -0.55382848225E+03  0.55382848225E+03  0.00000000000E+00 0. -1.
         23    2    1    2    0    0  0.23071153643E+02 -0.24459654806E+02  0.21851815969E+03  0.24459768434E+03  0.10462928952E+03 0.  0.
          5    1    1    2  502    0 -0.52421107467E+02  0.67654664623E+02 -0.40766096971E+03  0.41657494209E+03  0.47000000000E+01 0. -1.
         -5    1    3    3    0  503 -0.33635800072E+00 -0.27215374232E+02  0.21882626149E+03  0.22056249103E+03  0.47000000000E+01 0.  1.
          5    1    3    3  503    0  0.23407511644E+02  0.27557194262E+01 -0.30810179540E+00  0.24035193313E+02  0.47000000000E+01 0. -1.
         -5    1    1    2    0  502  0.29349953825E+02 -0.43195009817E+02 -0.12332899373E+03  0.13401253433E+03  0.47000000000E+01 0.  1.
<mgrwt>
<rscale>  0 0.13570493E+03</rscale>
<asrwt>0</asrwt>
<pdfrwt beam="1">  1        1 0.85204382E-01 0.14558924E+03</pdfrwt>
<pdfrwt beam="2">  1       -1 0.37131797E-01 0.14558924E+03</pdfrwt>
<totfact> 0.28384097E+02</totfact>
</mgrwt>
</event>
<event>
 8    1  0.1893090E-003  0.9700373E+02  0.7546771E-02  0.1288477E+00
          1   -1    0    0  501    0  0.00000000000E+00  0.00000000000E+00  0.99277235060E+02  0.99277235060E+02  0.00000000000E+00 0. -1.
         -1   -1    0    0    0  501 -0.00000000000E+00 -0.00000000000E+00 -0.14700240202E+03  0.14700240202E+03  0.00000000000E+00 0.  1.
         23    2    1    2    0    0  0.10602823941E+02  0.33558768574E+02  0.51388307074E+02  0.10977468951E+03  0.90394211814E+02 0.  0.
         23    2    1    2    0    0 -0.10602823941E+02 -0.33558768574E+02 -0.99113474035E+02  0.13650494757E+03  0.87014419219E+02 0.  0.
          5    1    3    3  502    0  0.40770490891E+02  0.73651497573E+01 -0.33653374956E+01  0.41831732631E+02  0.47000000000E+01 0. -1.
         -5    1    3    3    0  502 -0.30167666950E+02  0.26193618816E+02  0.54753644569E+02  0.67942956880E+02  0.47000000000E+01 0.  1.
          5    1    4    4  503    0  0.29376240239E+02 -0.12144118888E+02 -0.58069213400E+01  0.32653536556E+02  0.47000000000E+01 0. -1.
         -5    1    4    4    0  503 -0.39979064180E+02 -0.21414649686E+02 -0.93306552695E+02  0.10385141101E+03  0.47000000000E+01 0.  1.
<mgrwt>
<rscale>  0 0.96208638E+02</rscale>
<asrwt>0</asrwt>
<pdfrwt beam="1">  1        1 0.15273421E-01 0.97003734E+02</pdfrwt>
<pdfrwt beam="2">  1       -1 0.22615754E-01 0.97003734E+02</pdfrwt>
<totfact> 0.55634401E+03</totfact>
</mgrwt>
</event>
<event>
 8    1  0.1893090E-003  0.9853682E+02  0.7546771E-02  0.1290494E+00
          1   -1    0    0  501    0  0.00000000000E+00  0.00000000000E+00  0.65250926474E+03  0.65250926474E+03  0.00000000000E+00 0. -1.
         -1   -1    0    0    0  501 -0.00000000000E+00 -0.00000000000E+00 -0.14818176205E+02  0.14818176205E+02  0.00000000000E+00 0.  1.
         23    2    1    2    0    0 -0.92833595453E+01 -0.41867994766E+01  0.41416977619E+03  0.42305038252E+03  0.85623084432E+02 0.  0.
         23    2    1    2    0    0  0.92833595453E+01  0.41867994766E+01  0.22352131234E+03  0.24427705842E+03  0.98009153373E+02 0.  0.
          5    1    3    3  502    0  0.35755392339E+02 -0.19610132998E+01  0.25516038870E+03  0.25770372061E+03  0.47000000000E+01 0. -1.
         -5    1    4    4    0  503 -0.42055335478E+02  0.12790653917E+02  0.78036683022E+02  0.89688717054E+02  0.47000000000E+01 0.  1.
          5    1    4    4  503    0  0.51338695023E+02 -0.86038544399E+01  0.14548462932E+03  0.15458834136E+03  0.47000000000E+01 0. -1.
         -5    1    3    3    0  502 -0.45038751884E+02 -0.22257861768E+01  0.15900938749E+03  0.16534666191E+03  0.47000000000E+01 0.  1.
<mgrwt>
<rscale>  0 0.95303573E+02</rscale>
<asrwt>0</asrwt>
<pdfrwt beam="1">  1        1 0.10038602E+00 0.98536816E+02</pdfrwt>
<pdfrwt beam="2">  1       -1 0.22797199E-02 0.98536816E+02</pdfrwt>
<totfact> 0.16305709E+04</totfact>
</mgrwt>
</event>
<event>
 8    1  0.1893090E-003  0.9983684E+02  0.7546771E-02  0.1281188E+00
          2   -1    0    0  501    0  0.00000000000E+00  0.00000000000E+00  0.78340656721E+03  0.78340656721E+03  0.00000000000E+00 0. -1.
         -2   -1    0    0    0  501 -0.00000000000E+00 -0.00000000000E+00 -0.12641009493E+02  0.12641009493E+02  0.00000000000E+00 0.  1.
         23    2    1    2    0    0  0.26675429142E+02  0.26137738260E+02  0.41226284171E+03  0.42417926171E+03  0.92588528057E+02 0.  0.
         23    2    1    2    0    0 -0.26675429142E+02 -0.26137738260E+02  0.35850271600E+03  0.37186831499E+03  0.91471779425E+02 0.  0.
          5    1    4    4  502    0 -0.54107148134E+02 -0.15679564777E+02  0.13443286686E+03  0.14583455668E+03  0.47000000000E+01 0. -1.
         -5    1    3    3    0  503  0.13777739155E+02 -0.33526230911E+02  0.11467370699E+03  0.12035773066E+03  0.47000000000E+01 0.  1.
          5    1    3    3  503    0  0.12897689987E+02  0.59663969171E+02  0.29758913472E+03  0.30382153105E+03  0.47000000000E+01 0. -1.
         -5    1    4    4    0  502  0.27431718992E+02 -0.10458173483E+02  0.22406984915E+03  0.22603375831E+03  0.47000000000E+01 0.  1.
<mgrwt>
<rscale>  0 0.99577135E+02</rscale>
<asrwt>0</asrwt>
<pdfrwt beam="1">  1        2 0.12052405E+00 0.99836844E+02</pdfrwt>
<pdfrwt beam="2">  1       -2 0.19447713E-02 0.99836844E+02</pdfrwt>
<totfact> 0.26931224E+04</totfact>
</mgrwt>
</event>
<event>
 8    1  0.1893090E-003  0.1104982E+03  0.7546771E-02  0.1268448E+00
         -2   -1    0    0    0  501 -0.00000000000E+00  0.00000000000E+00  0.26480310037E+02  0.26480310037E+02  0.00000000000E+00 0.  1.
          2   -1    0    0  501    0  0.00000000000E+00 -0.00000000000E+00 -0.57160541290E+03  0.57160541290E+03  0.00000000000E+00 0. -1.
         23    2    1    2    0    0 -0.23261610652E+02  0.66029233764E+01 -0.88993590140E+02  0.12876087951E+03  0.89859912525E+02 0.  0.
         23    2    1    2    0    0  0.23261610652E+02 -0.66029233764E+01 -0.45613151272E+03  0.46932484342E+03  0.10781999180E+03 0.  0.
          5    1    4    4  502    0  0.44329665342E+02 -0.30922967294E+02 -0.40574654767E+03  0.40935766767E+03  0.47000000000E+01 0. -1.
         -5    1    4    4    0  502 -0.21068054691E+02  0.24320043918E+02 -0.50384965049E+02  0.59967175751E+02  0.47000000000E+01 0.  1.
          5    1    3    3  503    0 -0.27749198871E+02 -0.18203114337E+02 -0.96407165872E+02  0.10206763954E+03  0.47000000000E+01 0. -1.
         -5    1    3    3    0  503  0.44875882192E+01  0.24806037713E+02  0.74135757319E+01  0.26693239972E+02  0.47000000000E+01 0.  1.
<mgrwt>
<rscale>  0 0.10585297E+03</rscale>
<asrwt>0</asrwt>
<pdfrwt beam="1">  1        2 0.87939296E-01 0.11049820E+03</pdfrwt>
<pdfrwt beam="2">  1       -2 0.40738938E-02 0.11049820E+03</pdfrwt>
<totfact> 0.13337215E+04</totfact>
</mgrwt>
</event>
<event>
 8    1  0.1893090E-003  0.8680687E+02  0.7546771E-02  0.1311108E+00
          1   -1    0    0  501    0  0.00000000000E+00  0.00000000000E+00  0.45370314139E+03  0.45370314139E+03  0.00000000000E+00 0. -1.
         -1   -1    0    0    0  501 -0.00000000000E+00 -0.00000000000E+00 -0.28052130168E+02  0.28052130168E+02  0.00000000000E+00 0.  1.
         23    2    1    2    0    0  0.33689761435E+01  0.63063964382E+01  0.36696542739E+03  0.37697249198E+03  0.85985546295E+02 0.  0.
         23    2    1    2    0    0 -0.33689761435E+01 -0.63063964382E+01  0.58685583827E+02  0.10478277958E+03  0.86511921202E+02 0.  0.
          5    1    4    4  502    0 -0.14193699575E+02 -0.37289065733E+02  0.59294598725E+02  0.71623145483E+02  0.47000000000E+01 0. -1.
         -5    1    3    3    0  503 -0.74542782076E+01  0.41087742473E+02  0.11688450721E+03  0.12420888403E+03  0.47000000000E+01 0.  1.
          5    1    3    3  503    0  0.10823254351E+02 -0.34781346035E+02  0.25008092018E+03  0.25276360795E+03  0.47000000000E+01 0. -1.
         -5    1    4    4    0  502  0.10824723432E+02  0.30982669295E+02 -0.60901489835E+00  0.33159634092E+02  0.47000000000E+01 0.  1.
<mgrwt>
<rscale>  0 0.86675431E+02</rscale>
<asrwt>0</asrwt>
<pdfrwt beam="1">  1        1 0.69800478E-01 0.86806873E+02</pdfrwt>
<pdfrwt beam="2">  1       -1 0.43157127E-02 0.86806873E+02</pdfrwt>
<totfact> 0.10342411E+04</totfact>
</mgrwt>
</event>
<event>
 8    1  0.1893090E-003  0.9476152E+02  0.7546771E-02  0.1291757E+00
          3   -1    0    0  501    0  0.00000000000E+00  0.00000000000E+00  0.77289645705E+02  0.77289645705E+02  0.00000000000E+00 0. -1.
         -3   -1    0    0    0  501 -0.00000000000E+00 -0.00000000000E+00 -0.17518634218E+03  0.17518634218E+03  0.00000000000E+00 0.  1.
         23    2    1    2    0    0 -0.29394563498E+02 -0.28764287232E+01  0.24383629653E+02  0.97775557740E+02  0.89962125869E+02 0.  0.
         23    2    1    2    0    0  0.29394563498E+02  0.28764287232E+01 -0.12228032613E+03  0.15470043015E+03  0.90041272336E+02 0.  0.
          5    1    3    3  502    0  0.22922190618E+02  0.17834368526E+01  0.36757273682E+02  0.43609570489E+02  0.47000000000E+01 0. -1.
         -5    1    4    4    0  503 -0.20876618749E+02 -0.23847436141E+02 -0.71158986210E+02  0.78039891974E+02  0.47000000000E+01 0.  1.
          5    1    4    4  503    0  0.50271182247E+02  0.26723864864E+02 -0.51121339920E+02  0.76660538173E+02  0.47000000000E+01 0. -1.
         -5    1    3    3    0  502 -0.52316754116E+02 -0.46598655759E+01 -0.12373644028E+02  0.54165987252E+02  0.47000000000E+01 0.  1.
<mgrwt>
<rscale>  0 0.94742710E+02</rscale>
<asrwt>0</asrwt>
<pdfrwt beam="1">  1        3 0.11890715E-01 0.94761516E+02</pdfrwt>
<pdfrwt beam="2">  1       -3 0.26951744E-01 0.94761516E+02</pdfrwt>
<totfact> 0.15544713E+03</totfact>
</mgrwt>
</event>
<event>
 8    1  0.1893090E-003  0.1223311E+03  0.7546771E-02  0.1239733E+00
         -1   -1    0    0    0  501 -0.00000000000E+00  0.00000000000E+00  0.28494239524E+02  0.28494239524E+02  0.00000000000E+00 0.  1.
          1   -1    0    0  501    0  0.00000000000E+00 -0.00000000000E+00 -0.54498704287E+03  0.54498704287E+03  0.00000000000E+00 0. -1.
         23    2    1    2    0    0 -0.32264735920E+02  0.74595505350E+02 -0.19649950724E+03  0.23090193675E+03  0.89989696354E+02 0.  0.
         23    2    1    2    0    0  0.32264735920E+02 -0.74595505350E+02 -0.31999329611E+03  0.34257934564E+03  0.91429732049E+02 0.  0.
          5    1    3    3  502    0  0.30100345884E+02  0.18222101780E+02 -0.76208459587E+02  0.84070774519E+02  0.47000000000E+01 0. -1.
         -5    1    3    3    0  502 -0.62365081804E+02  0.56373403570E+02 -0.12029104765E+03  0.14683116224E+03  0.47000000000E+01 0.  1.
          5    1    4    4  503    0  0.51713602695E+02 -0.78969502656E+01 -0.14664492803E+03  0.15576740173E+03  0.47000000000E+01 0. -1.
         -5    1    4    4    0  503 -0.19448866775E+02 -0.66698555085E+02 -0.17334836809E+03  0.18681194391E+03  0.47000000000E+01 0.  1.
<mgrwt>
<rscale>  0 0.12206209E+03</rscale>
<asrwt>0</asrwt>
<pdfrwt beam="1">  1        1 0.83844161E-01 0.12233110E+03</pdfrwt>
<pdfrwt beam="2">  1       -1 0.43837291E-02 0.12233110E+03</pdfrwt>
<totfact> 0.81887836E+03</totfact>
</mgrwt>
</event>
<event>
 8    1  0.1893090E-003  0.1059729E+03  0.7546771E-02  0.1269647E+00
         -1   -1    0    0    0  501 -0.00000000000E+00  0.00000000000E+00  0.17957313070E+02  0.17957313070E+02  0.00000000000E+00 0.  1.
          1   -1    0    0  501    0  0.00000000000E+00 -0.00000000000E+00 -0.67971319348E+03  0.67971319348E+03  0.00000000000E+00 0. -1.
         23    2    1    2    0    0 -0.32618241208E+02  0.37165104738E+02 -0.21378173613E+03  0.23733249304E+03  0.90437198552E+02 0.  0.
         23    2    1    2    0    0  0.32618241208E+02 -0.37165104738E+02 -0.44797414428E+03  0.46033801350E+03  0.93728640582E+02 0.  0.
          5    1    4    4  502    0  0.58016692123E+02 -0.45796841234E+02 -0.25794442733E+03  0.26836673568E+03  0.47000000000E+01 0. -1.
         -5    1    3    3    0  503 -0.19416433711E+02 -0.19761071196E+02 -0.19002339010E+02  0.33921626151E+02  0.47000000000E+01 0.  1.
          5    1    3    3  503    0 -0.13201807497E+02  0.56926175935E+02 -0.19477939712E+03  0.20341086689E+03  0.47000000000E+01 0. -1.
         -5    1    4    4    0  502 -0.25398450915E+02  0.86317364954E+01 -0.19002971695E+03  0.19197127782E+03  0.47000000000E+01 0.  1.
<mgrwt>
<rscale>  0 0.10524040E+03</rscale>
<asrwt>0</asrwt>
<pdfrwt beam="1">  1        1 0.10457125E+00 0.10597289E+03</pdfrwt>
<pdfrwt beam="2">  1       -1 0.27626637E-02 0.10597289E+03</pdfrwt>
<totfact> 0.11755609E+04</totfact>
</mgrwt>
</event>
<event>
 8    1  0.1893090E-003  0.1289547E+03  0.7546771E-02  0.1230317E+00
          3   -1    0    0  501    0  0.00000000000E+00  0.00000000000E+00  0.40794205913E+02  0.40794205913E+02  0.00000000000E+00 0. -1.
         -3   -1    0    0    0  501 -0.00000000000E+00 -0.00000000000E+00 -0.62171361422E+03  0.62171361422E+03  0.00000000000E+00 0.  1.
         23    2    1    2    0    0  0.20554794821E+01 -0.87630542698E+02 -0.49214116091E+03  0.50875557589E+03  0.94583173643E+02 0.  0.
         23    2    1    2    0    0 -0.20554794821E+01  0.87630542698E+02 -0.88778247404E+02  0.15375224424E+03  0.89860104540E+02 0.  0.
          5    1    3    3  502    0 -0.22263394451E+02  0.41426039705E+01 -0.35812527812E+02  0.42631526461E+02  0.47000000000E+01 0. -1.
         -5    1    4    4    0  503 -0.12999660591E+02  0.36915943136E+02 -0.93474709208E+02  0.10144648488E+03  0.47000000000E+01 0.  1.
          5    1    4    4  503    0  0.10944181109E+02  0.50714599562E+02  0.46964618043E+01  0.52305759361E+02  0.47000000000E+01 0. -1.
         -5    1    3    3    0  502  0.24318873933E+02 -0.91773146668E+02 -0.45632863309E+03  0.46612404943E+03  0.47000000000E+01 0.  1.
<mgrwt>
<rscale>  0 0.12809026E+03</rscale>
<asrwt>0</asrwt>
<pdfrwt beam="1">  1        3 0.62760322E-02 0.12895470E+03</pdfrwt>
<pdfrwt beam="2">  1       -3 0.95648240E-01 0.12895470E+03</pdfrwt>
<totfact> 0.36622451E+02</totfact>
</mgrwt>
</event>
<event>
 8    1  0.1893090E-003  0.9876598E+02  0.7546771E-02  0.1285136E+00
          3   -1    0    0  501    0  0.00000000000E+00  0.00000000000E+00  0.46362056619E+02  0.46362056619E+02  0.00000000000E+00 0. -1.
         -3   -1    0    0    0  501 -0.00000000000E+00 -0.00000000000E+00 -0.21187991718E+03  0.21187991718E+03  0.00000000000E+00 0.  1.
         23    2    1    2    0    0  0.51231315300E+01 -0.24178443789E+02 -0.11253010148E+03  0.14972555476E+03  0.95623607906E+02 0.  0.
         23    2    1    2    0    0 -0.51231315300E+01  0.24178443789E+02 -0.52987759075E+02  0.10851641903E+03  0.91418088839E+02 0.  0.
          5    1    4    4  502    0 -0.46889000099E+02  0.29558031605E+01 -0.21550478930E+02  0.51902102507E+02  0.47000000000E+01 0. -1.
         -5    1    3    3    0  503  0.31042381881E+02 -0.31789564876E+02 -0.11382031888E+03  0.12227575761E+03  0.47000000000E+01 0.  1.
          5    1    3    3  503    0 -0.25919250351E+02  0.76111210867E+01  0.12902174008E+01  0.27449797156E+02  0.47000000000E+01 0. -1.
         -5    1    4    4    0  502  0.41765868569E+02  0.21222640629E+02 -0.31437280146E+02  0.56614316524E+02  0.47000000000E+01 0.  1.
<mgrwt>
<rscale>  0 0.97733430E+02</rscale>
<asrwt>0</asrwt>
<pdfrwt beam="1">  1        3 0.71326242E-02 0.98765976E+02</pdfrwt>
<pdfrwt beam="2">  1       -3 0.32596910E-01 0.98765976E+02</pdfrwt>
<totfact> 0.25447577E+03</totfact>
</mgrwt>
</event>
<event>
 8    1  0.1893090E-003  0.9310399E+02  0.7546771E-02  0.1296768E+00
          2   -1    0    0  501    0  0.00000000000E+00  0.00000000000E+00  0.30242286806E+03  0.30242286806E+03  0.00000000000E+00 0. -1.
         -2   -1    0    0    0  501 -0.00000000000E+00 -0.00000000000E+00 -0.57078329689E+02  0.57078329689E+02  0.00000000000E+00 0.  1.
         23    2    1    2    0    0  0.30082622471E+01  0.43265570563E+01 -0.63205450658E+01  0.91166208427E+02  0.90794050088E+02 0.  0.
         23    2    1    2    0    0 -0.30082622471E+01 -0.43265570563E+01  0.25166508344E+03  0.26833498933E+03  0.92954739178E+02 0.  0.
          5    1    4    4  502    0 -0.74905731133E+01  0.43715654016E+02  0.12361526483E+03  0.13141533697E+03  0.47000000000E+01 0. -1.
         -5    1    3    3    0  503 -0.34115269886E+02 -0.25358622157E+02 -0.73326739818E+01  0.43390891496E+02  0.47000000000E+01 0.  1.
          5    1    3    3  503    0  0.37123532133E+02  0.29685179213E+02  0.10121289161E+01  0.47775316931E+02  0.47000000000E+01 0. -1.
         -5    1    4    4    0  502  0.44823108662E+01 -0.48042211072E+02  0.12804981861E+03  0.13691965236E+03  0.47000000000E+01 0.  1.
<mgrwt>
<rscale>  0 0.92559951E+02</rscale>
<asrwt>0</asrwt>
<pdfrwt beam="1">  1        2 0.46526594E-01 0.93103986E+02</pdfrwt>
<pdfrwt beam="2">  1       -2 0.87812817E-02 0.93103986E+02</pdfrwt>
<totfact> 0.81648347E+03</totfact>
</mgrwt>
</event>
<event>
 8    1  0.1893090E-003  0.9451947E+02  0.7546771E-02  0.1292309E+00
          2   -1    0    0  501    0  0.00000000000E+00  0.00000000000E+00  0.29948979501E+03  0.29948979501E+03  0.00000000000E+00 0. -1.
         -2   -1    0    0    0  501 -0.00000000000E+00 -0.00000000000E+00 -0.36535870430E+02  0.36535870430E+02  0.00000000000E+00 0.  1.
         23    2    1    2    0    0  0.20448333428E+02 -0.10422741514E+02  0.20364212611E+03  0.22450845178E+03  0.91690574832E+02 0.  0.
         23    2    1    2    0    0 -0.20448333428E+02  0.10422741514E+02  0.59311798471E+02  0.11151721366E+03  0.91604757651E+02 0.  0.
          5    1    3    3  502    0  0.24373740327E+02  0.35975923159E+02  0.66298745135E+02  0.79410074116E+02  0.47000000000E+01 0. -1.
         -5    1    3    3    0  502 -0.39254068986E+01 -0.46398664674E+02  0.13734338097E+03  0.14509837766E+03  0.47000000000E+01 0.  1.
          5    1    4    4  503    0  0.29271719125E+02  0.10181143383E+02  0.52453740979E+02  0.61106253066E+02  0.47000000000E+01 0. -1.
         -5    1    4    4    0  503 -0.49720052553E+02  0.24159813122E+00  0.68580574918E+01  0.50410960595E+02  0.47000000000E+01 0.  1.
<mgrwt>
<rscale>  0 0.94498647E+02</rscale>
<asrwt>0</asrwt>
<pdfrwt beam="1">  1        2 0.46075351E-01 0.94519466E+02</pdfrwt>
<pdfrwt beam="2">  1       -2 0.56209033E-02 0.94519466E+02</pdfrwt>
<totfact> 0.16249310E+04</totfact>
</mgrwt>
</event>
<event>
 8    1  0.1893090E-003  0.9692793E+02  0.7546771E-02  0.1288134E+00
          2   -1    0    0  501    0  0.00000000000E+00  0.00000000000E+00  0.39737723158E+03  0.39737723158E+03  0.00000000000E+00 0. -1.
         -2   -1    0    0    0  501 -0.00000000000E+00 -0.00000000000E+00 -0.23968615932E+02  0.23968615932E+02  0.00000000000E+00 0.  1.
         23    2    1    2    0    0  0.23147329864E+02 -0.12274945497E+02  0.14450173356E+03  0.17276309552E+03  0.90993752556E+02 0.  0.
         23    2    1    2    0    0 -0.23147329864E+02  0.12274945497E+02  0.22890688209E+03  0.24858275199E+03  0.93319616135E+02 0.  0.
          5    1    3    3  502    0  0.51575512638E+02 -0.30818429268E+02  0.96884971859E+02  0.11409906598E+03  0.47000000000E+01 0. -1.
         -5    1    3    3    0  502 -0.28428182773E+02  0.18543483771E+02  0.47616761702E+02  0.58664029534E+02  0.47000000000E+01 0.  1.
          5    1    4    4  503    0 -0.24319706961E+02 -0.35193604314E+02  0.15288872839E+03  0.15883038500E+03  0.47000000000E+01 0. -1.
         -5    1    4    4    0  503  0.11723770963E+01  0.47468549811E+02  0.76018153699E+02  0.89752366994E+02  0.47000000000E+01 0.  1.
<mgrwt>
<rscale>  0 0.96363726E+02</rscale>
<asrwt>0</asrwt>
<pdfrwt beam="1">  1        2 0.61134954E-01 0.96927932E+02</pdfrwt>
<pdfrwt beam="2">  1       -2 0.36874797E-02 0.96927932E+02</pdfrwt>
<totfact> 0.22608049E+04</totfact>
</mgrwt>
</event>
<event>
 8    1  0.1893090E-003  0.1208739E+03  0.7546771E-02  0.1242931E+00
         -1   -1    0    0    0  501 -0.00000000000E+00  0.00000000000E+00  0.46327540695E+02  0.46327540695E+02  0.00000000000E+00 0.  1.
          1   -1    0    0  501    0  0.00000000000E+00 -0.00000000000E+00 -0.66415949468E+03  0.66415949468E+03  0.00000000000E+00 0. -1.
         23    2    1    2    0    0 -0.68669668261E+02 -0.37507951157E+02 -0.50410543802E+02  0.13096459927E+03  0.92131067487E+02 0.  0.
         23    2    1    2    0    0  0.68669668261E+02  0.37507951157E+02 -0.56742141018E+03  0.57952243610E+03  0.88072853230E+02 0.  0.
          5    1    3    3  502    0  0.17333921937E+02 -0.13125434771E+02 -0.32958042675E+02  0.39762601331E+02  0.47000000000E+01 0. -1.
         -5    1    3    3    0  502 -0.86003590199E+02 -0.24382516386E+02 -0.17452501127E+02  0.91201997938E+02  0.47000000000E+01 0.  1.
          5    1    4    4  503    0  0.67325087512E+02  0.62008214260E+02 -0.47633414565E+03  0.48507112298E+03  0.47000000000E+01 0. -1.
         -5    1    4    4    0  503  0.13445807493E+01 -0.24500263104E+02 -0.91087264536E+02  0.94451313120E+02  0.47000000000E+01 0.  1.
<mgrwt>
<rscale>  0 0.12010055E+03</rscale>
<asrwt>0</asrwt>
<pdfrwt beam="1">  1        1 0.10217839E+00 0.12087392E+03</pdfrwt>
<pdfrwt beam="2">  1       -1 0.71273138E-02 0.12087392E+03</pdfrwt>
<totfact> 0.30451217E+03</totfact>
</mgrwt>
</event>
<event>
 8    1  0.1893090E-003  0.1868644E+03  0.7546771E-02  0.1161354E+00
          2   -1    0    0  501    0  0.00000000000E+00  0.00000000000E+00  0.11738298588E+04  0.11738298588E+04  0.00000000000E+00 0. -1.
         -2   -1    0    0    0  501 -0.00000000000E+00 -0.00000000000E+00 -0.32047804263E+02  0.32047804263E+02  0.00000000000E+00 0.  1.
         23    2    1    2    0    0  0.85831834306E+02  0.13923249868E+03  0.40832321250E+03  0.44898917413E+03  0.90059092542E+02 0.  0.
         23    2    1    2    0    0 -0.85831834306E+02 -0.13923249868E+03  0.73345884204E+03  0.75688848894E+03  0.90363262720E+02 0.  0.
          5    1    3    3  502    0  0.98973583215E+02  0.87819109843E+02  0.31165312324E+03  0.33861146681E+03  0.47000000000E+01 0. -1.
         -5    1    3    3    0  502 -0.13141748909E+02  0.51413388836E+02  0.96670089256E+02  0.11037770732E+03  0.47000000000E+01 0.  1.
          5    1    4    4  503    0 -0.84128973329E+01 -0.98668966261E+02  0.40686522520E+03  0.41876931982E+03  0.47000000000E+01 0. -1.
         -5    1    4    4    0  503 -0.77418936973E+02 -0.40563532418E+02  0.32659361684E+03  0.33811916911E+03  0.47000000000E+01 0.  1.
<mgrwt>
<rscale>  0 0.18682768E+03</rscale>
<asrwt>0</asrwt>
<pdfrwt beam="1">  1        2 0.18058918E+00 0.18686442E+03</pdfrwt>
<pdfrwt beam="2">  1       -2 0.49304323E-02 0.18686442E+03</pdfrwt>
<totfact> 0.41023433E+03</totfact>
</mgrwt>
</event>
<event>
 8    1  0.1893090E-003  0.1025435E+03  0.7546771E-02  0.1275363E+00
         -3   -1    0    0    0  501 -0.00000000000E+00  0.00000000000E+00  0.63265779674E+03  0.63265779674E+03  0.00000000000E+00 0.  1.
          3   -1    0    0  501    0  0.00000000000E+00 -0.00000000000E+00 -0.19691763700E+02  0.19691763700E+02  0.00000000000E+00 0. -1.
         23    2    1    2    0    0  0.44160715480E+02 -0.22232147595E+02  0.17471234317E+03  0.20225904945E+03  0.89106021402E+02 0.  0.
         23    2    1    2    0    0 -0.44160715480E+02  0.22232147595E+02  0.43825368988E+03  0.45009051099E+03  0.89837265203E+02 0.  0.
          5    1    3    3  502    0  0.25419208765E+02  0.20431964525E+02  0.15712040808E+02  0.36504240506E+02  0.47000000000E+01 0. -1.
         -5    1    4    4    0  503 -0.16770044741E+02 -0.34901247713E+02  0.16474779779E+03  0.16930226923E+03  0.47000000000E+01 0.  1.
          5    1    4    4  503    0 -0.27390670739E+02  0.57133395308E+02  0.27350589209E+03  0.28078824176E+03  0.47000000000E+01 0. -1.
         -5    1    3    3    0  502  0.18741506715E+02 -0.42664112120E+02  0.15900030236E+03  0.16575480894E+03  0.47000000000E+01 0.  1.
<mgrwt>
<rscale>  0 0.10238313E+03</rscale>
<asrwt>0</asrwt>
<pdfrwt beam="1">  1        3 0.30295026E-02 0.10254351E+03</pdfrwt>
<pdfrwt beam="2">  1       -3 0.97331953E-01 0.10254351E+03</pdfrwt>
<totfact> 0.10625041E+03</totfact>
</mgrwt>
</event>
<event>
 8    1  0.1893090E-003  0.9518628E+02  0.7546771E-02  0.1291710E+00
         -1   -1    0    0    0  501 -0.00000000000E+00  0.00000000000E+00  0.25027064143E+02  0.25027064143E+02  0.00000000000E+00 0.  1.
          1   -1    0    0  501    0  0.00000000000E+00 -0.00000000000E+00 -0.56723807807E+03  0.56723807807E+03  0.00000000000E+00 0. -1.
         23    2    1    2    0    0  0.20516812300E+02  0.13942932437E+02 -0.91766229683E+02  0.13221750842E+03  0.91897136362E+02 0.  0.
         23    2    1    2    0    0 -0.20516812300E+02 -0.13942932437E+02 -0.45044478425E+03  0.46004763379E+03  0.90155292421E+02 0.  0.
          5    1    3    3  502    0  0.14829633831E+02 -0.33712672252E+02 -0.12022980054E+02  0.39026969640E+02  0.47000000000E+01 0. -1.
         -5    1    3    3    0  502  0.56871784696E+01  0.47655604689E+02 -0.79743249630E+02  0.93190538784E+02  0.47000000000E+01 0.  1.
          5    1    4    4  503    0 -0.44767111918E+02 -0.35217485101E+02 -0.34423514688E+03  0.34894740566E+03  0.47000000000E+01 0. -1.
         -5    1    4    4    0  503  0.24250299618E+02  0.21274552664E+02 -0.10620963736E+03  0.11110022814E+03  0.47000000000E+01 0.  1.
<mgrwt>
<rscale>  0 0.94763335E+02</rscale>
<asrwt>0</asrwt>
<pdfrwt beam="1">  1        1 0.87267397E-01 0.95186284E+02</pdfrwt>
<pdfrwt beam="2">  1       -1 0.38503175E-02 0.95186284E+02</pdfrwt>
<totfact> 0.92212741E+03</totfact>
</mgrwt>
</event>
<event>
 8    1  0.1893090E-003  0.1138757E+03  0.7546771E-02  0.1253562E+00
          1   -1    0    0  501    0  0.00000000000E+00  0.00000000000E+00  0.57381951701E+03  0.57381951701E+03  0.00000000000E+00 0. -1.
         -1   -1    0    0    0  501 -0.00000000000E+00 -0.00000000000E+00 -0.22621706326E+02  0.22621706326E+02  0.00000000000E+00 0.  1.
         23    2    1    2    0    0  0.34273211157E+02 -0.61731497610E+02  0.28556635958E+03  0.30743423697E+03  0.89343346359E+02 0.  0.
         23    2    1    2    0    0 -0.34273211157E+02  0.61731497610E+02  0.26563145111E+03  0.28900698637E+03  0.89328268491E+02 0.  0.
          5    1    4    4  502    0 -0.53198455499E+02  0.47408895421E+01  0.12285629396E+03  0.13404592745E+03  0.47000000000E+01 0. -1.
         -5    1    3    3    0  503  0.51981119978E+01  0.20127088347E+02  0.25669210737E+02  0.33363429583E+02  0.47000000000E+01 0.  1.
          5    1    3    3  503    0  0.29075099159E+02 -0.81858585957E+02  0.25989714884E+03  0.27407080739E+03  0.47000000000E+01 0. -1.
         -5    1    4    4    0  502  0.18925244343E+02  0.56990608068E+02  0.14277515715E+03  0.15496105891E+03  0.47000000000E+01 0.  1.
<mgrwt>
<rscale>  0 0.11387270E+03</rscale>
<asrwt>0</asrwt>
<pdfrwt beam="1">  1        1 0.88279914E-01 0.11387565E+03</pdfrwt>
<pdfrwt beam="2">  1       -1 0.34802630E-02 0.11387565E+03</pdfrwt>
<totfact> 0.10660772E+04</totfact>
</mgrwt>
</event>
<event>
 8    1  0.1893090E-003  0.9752506E+02  0.7546771E-02  0.1290100E+00
         -2   -1    0    0    0  501 -0.00000000000E+00  0.00000000000E+00  0.49825217604E+02  0.49825217604E+02  0.00000000000E+00 0.  1.
          2   -1    0    0  501    0  0.00000000000E+00 -0.00000000000E+00 -0.18768004216E+03  0.18768004216E+03  0.00000000000E+00 0. -1.
         23    2    1    2    0    0  0.18288855844E+02  0.14568165171E+02 -0.10165637354E+03  0.14087283176E+03  0.94680635625E+02 0.  0.
         23    2    1    2    0    0 -0.18288855844E+02 -0.14568165171E+02 -0.36198451008E+02  0.96632427997E+02  0.86491529069E+02 0.  0.
          5    1    4    4  502    0 -0.48355238932E+02 -0.38829553657E+01 -0.41418195854E+02  0.63959857898E+02  0.47000000000E+01 0. -1.
         -5    1    4    4    0  502  0.30066383088E+02 -0.10685209805E+02  0.52197448459E+01  0.32672570098E+02  0.47000000000E+01 0.  1.
          5    1    3    3  503    0 -0.80277596060E+00  0.52964521099E+02 -0.45000345823E+02  0.69663520359E+02  0.47000000000E+01 0. -1.
         -5    1    3    3    0  503  0.19091631805E+02 -0.38396355929E+02 -0.56656027721E+02  0.71209311405E+02  0.47000000000E+01 0.  1.
<mgrwt>
<rscale>  0 0.95479400E+02</rscale>
<asrwt>0</asrwt>
<pdfrwt beam="1">  1        2 0.28873853E-01 0.97525055E+02</pdfrwt>
<pdfrwt beam="2">  1       -2 0.76654181E-02 0.97525055E+02</pdfrwt>
<totfact> 0.16720619E+04</totfact>
</mgrwt>
</event>
<event>
 8    1  0.1893090E-003  0.1085626E+03  0.7546771E-02  0.1266231E+00
          3   -1    0    0  501    0  0.00000000000E+00  0.00000000000E+00  0.90495318470E+02  0.90495318470E+02  0.00000000000E+00 0. -1.
         -3   -1    0    0    0  501 -0.00000000000E+00 -0.00000000000E+00 -0.15046810174E+03  0.15046810174E+03  0.00000000000E+00 0.  1.
         23    2    1    2    0    0 -0.47091304173E+02 -0.54300968698E+01 -0.82161088857E+02  0.13614801560E+03  0.97666579491E+02 0.  0.
         23    2    1    2    0    0  0.47091304173E+02  0.54300968698E+01  0.22188305589E+02  0.10481540461E+03  0.90812285827E+02 0.  0.
          5    1    3    3  502    0 -0.11114035741E+02 -0.35645976417E+02  0.40532231706E+01  0.37850707302E+02  0.47000000000E+01 0. -1.
         -5    1    4    4    0  503  0.23668354364E+02 -0.10548341494E+02  0.55130641385E+02  0.61097758765E+02  0.47000000000E+01 0.  1.
          5    1    4    4  503    0  0.23422949809E+02  0.15978438363E+02 -0.32942335795E+02  0.43717645842E+02  0.47000000000E+01 0. -1.
         -5    1    3    3    0  502 -0.35977268431E+02  0.30215879547E+02 -0.86214312027E+02  0.98297308300E+02  0.47000000000E+01 0.  1.
<mgrwt>
<rscale>  0 0.10699846E+03</rscale>
<asrwt>0</asrwt>
<pdfrwt beam="1">  1        3 0.13922357E-01 0.10856260E+03</pdfrwt>
<pdfrwt beam="2">  1       -3 0.23148938E-01 0.10856260E+03</pdfrwt>
<totfact> 0.16087544E+03</totfact>
</mgrwt>
</event>
<event>
 8    1  0.1893090E-003  0.9210233E+02  0.7546771E-02  0.1297979E+00
         -2   -1    0    0    0  501 -0.00000000000E+00  0.00000000000E+00  0.22242885431E+02  0.22242885431E+02  0.00000000000E+00 0.  1.
          2   -1    0    0  501    0  0.00000000000E+00 -0.00000000000E+00 -0.38333932287E+03  0.38333932287E+03  0.00000000000E+00 0. -1.
         23    2    1    2    0    0 -0.86983014690E+01  0.13812395923E+02 -0.16298193650E+03  0.18720563668E+03  0.90644338221E+02 0.  0.
         23    2    1    2    0    0  0.86983014690E+01 -0.13812395923E+02 -0.19811450093E+03  0.21837657161E+03  0.90402039902E+02 0.  0.
          5    1    3    3  502    0 -0.88487505739E+01 -0.19734946781E+02 -0.14887361423E+03  0.15050983863E+03  0.47000000000E+01 0. -1.
         -5    1    4    4    0  503 -0.39494442584E+02  0.46310224580E+01 -0.87708852548E+02  0.96416752587E+02  0.47000000000E+01 0.  1.
          5    1    4    4  503    0  0.48192744053E+02 -0.18443418381E+02 -0.11040564839E+03  0.12195981902E+03  0.47000000000E+01 0. -1.
         -5    1    3    3    0  502  0.15044910492E+00  0.33547342704E+02 -0.14108322271E+02  0.36695798053E+02  0.47000000000E+01 0.  1.
<mgrwt>
<rscale>  0 0.92042657E+02</rscale>
<asrwt>0</asrwt>
<pdfrwt beam="1">  1        2 0.58975280E-01 0.92102328E+02</pdfrwt>
<pdfrwt beam="2">  1       -2 0.34219824E-02 0.92102328E+02</pdfrwt>
<totfact> 0.26055645E+04</totfact>
</mgrwt>
</event>
<event>
 8    1  0.1893090E-003  0.1222849E+03  0.7546771E-02  0.1244809E+00
          2   -1    0    0  501    0  0.00000000000E+00  0.00000000000E+00  0.12668907668E+03  0.12668907668E+03  0.00000000000E+00 0. -1.
         -2   -1    0    0    0  501 -0.00000000000E+00 -0.00000000000E+00 -0.11032572203E+03  0.11032572203E+03  0.00000000000E+00 0.  1.
         23    2    1    2    0    0 -0.26761566325E+02 -0.52922518005E+02  0.31882496729E+02  0.12637278109E+03  0.10694209582E+03 0.  0.
         23    2    1    2    0    0  0.26761566325E+02  0.52922518005E+02 -0.15519142083E+02  0.11064201762E+03  0.92107751832E+02 0.  0.
          5    1    4    4  502    0  0.39367928889E+02 -0.12288320125E+02 -0.14757208220E+02  0.44053397495E+02  0.47000000000E+01 0. -1.
         -5    1    4    4    0  502 -0.12606362564E+02  0.65210838129E+02 -0.76193386362E+00  0.66588620123E+02  0.47000000000E+01 0.  1.
          5    1    3    3  503    0 -0.54893745043E+00 -0.50047623810E+02  0.66020340387E+02  0.82980969663E+02  0.47000000000E+01 0. -1.
         -5    1    3    3    0  503 -0.26212628874E+02 -0.28748941943E+01 -0.34137843658E+02  0.43391811425E+02  0.47000000000E+01 0.  1.
<mgrwt>
<rscale>  0 0.11896819E+03</rscale>
<asrwt>0</asrwt>
<pdfrwt beam="1">  1        2 0.19490627E-01 0.12228486E+03</pdfrwt>
<pdfrwt beam="2">  1       -2 0.16973188E-01 0.12228486E+03</pdfrwt>
<totfact> 0.74701152E+03</totfact>
</mgrwt>
</event>
<event>
 8    1  0.1893090E-003  0.9183727E+02  0.7546771E-02  0.1299175E+00
          1   -1    0    0  501    0  0.00000000000E+00  0.00000000000E+00  0.40238086162E+02  0.40238086162E+02  0.00000000000E+00 0. -1.
         -1   -1    0    0    0  501 -0.00000000000E+00 -0.00000000000E+00 -0.22058639766E+03  0.22058639766E+03  0.00000000000E+00 0.  1.
         23    2    1    2    0    0  0.68075461371E+00 -0.78311823641E+01 -0.57103386747E+02  0.10712544091E+03  0.90295473135E+02 0.  0.
         23    2    1    2    0    0 -0.68075461371E+00  0.78311823641E+01 -0.12324492475E+03  0.15369904291E+03  0.91500237541E+02 0.  0.
          5    1    4    4  502    0 -0.75527921649E+01 -0.41058318899E+02 -0.61999592013E+02  0.74892386996E+02  0.47000000000E+01 0. -1.
         -5    1    4    4    0  502  0.68720375512E+01  0.48889501263E+02 -0.61245332736E+02  0.78806655910E+02  0.47000000000E+01 0.  1.
          5    1    3    3  503    0 -0.34994853222E+02 -0.24296250648E+02 -0.51747722127E+02  0.67192739882E+02  0.47000000000E+01 0. -1.
         -5    1    3    3    0  503  0.35675607836E+02  0.16465068284E+02 -0.53556646202E+01  0.39932701030E+02  0.47000000000E+01 0.  1.
<mgrwt>
<rscale>  0 0.91535718E+02</rscale>
<asrwt>0</asrwt>
<pdfrwt beam="1">  1        1 0.61904748E-02 0.91837271E+02</pdfrwt>
<pdfrwt beam="2">  1       -1 0.33936369E-01 0.91837271E+02</pdfrwt>
<totfact> 0.92790798E+03</totfact>
</mgrwt>
</event>
<event>
 8    1  0.1893090E-003  0.9302915E+02  0.7546771E-02  0.1296256E+00
         -1   -1    0    0    0  501 -0.00000000000E+00  0.00000000000E+00  0.26273281577E+03  0.26273281577E+03  0.00000000000E+00 0.  1.
          1   -1    0    0  501    0  0.00000000000E+00 -0.00000000000E+00 -0.14017670457E+03  0.14017670457E+03  0.00000000000E+00 0. -1.
         23    2    1    2    0    0 -0.22781724827E+01 -0.13705680912E+02  0.23784388090E+03  0.25539016117E+03  0.91985797711E+02 0.  0.
         23    2    1    2    0    0  0.22781724827E+01  0.13705680912E+02 -0.11528776971E+03  0.14751935917E+03  0.90981623018E+02 0.  0.
          5    1    4    4  502    0  0.39621544727E+02  0.19172300827E+02 -0.28192095396E+02  0.52481693650E+02  0.47000000000E+01 0. -1.
         -5    1    4    4    0  502 -0.37343372244E+02 -0.54666199150E+01 -0.87095674312E+02  0.95037665521E+02  0.47000000000E+01 0.  1.
          5    1    3    3  503    0 -0.17319864268E+02  0.22850811206E+02  0.23467642161E+02  0.37349129838E+02  0.47000000000E+01 0. -1.
         -5    1    3    3    0  503  0.15041691785E+02 -0.36556492118E+02  0.21437623874E+03  0.21804103133E+03  0.47000000000E+01 0.  1.
<mgrwt>
<rscale>  0 0.92779953E+02</rscale>
<asrwt>0</asrwt>
<pdfrwt beam="1">  1        1 0.21565647E-01 0.93029150E+02</pdfrwt>
<pdfrwt beam="2">  1       -1 0.40420433E-01 0.93029150E+02</pdfrwt>
<totfact> 0.13615089E+03</totfact>
</mgrwt>
</event>
<event>
 8    1  0.1893090E-003  0.1081221E+03  0.7546771E-02  0.1264164E+00
          1   -1    0    0  501    0  0.00000000000E+00  0.00000000000E+00  0.16731831869E+03  0.16731831869E+03  0.00000000000E+00 0. -1.
         -1   -1    0    0    0  501 -0.00000000000E+00 -0.00000000000E+00 -0.69844996050E+02  0.69844996050E+02  0.00000000000E+00 0.  1.
         23    2    1    2    0    0  0.57625817746E+02  0.40704665397E+01  0.52775089331E+02  0.12031457179E+03  0.91395199880E+02 0.  0.
         23    2    1    2    0    0 -0.57625817746E+02 -0.40704665397E+01  0.44698233311E+02  0.11684874296E+03  0.91205225183E+02 0.  0.
          5    1    4    4  502    0 -0.39555051278E+02  0.41413234758E+02  0.33172220832E+02  0.66348657331E+02  0.47000000000E+01 0. -1.
         -5    1    3    3    0  503  0.69475807234E+02 -0.14614936672E+02  0.98982709987E+01  0.71836967736E+02  0.47000000000E+01 0.  1.
          5    1    3    3  503    0 -0.11849989488E+02  0.18685403211E+02  0.42876818332E+02  0.48477604049E+02  0.47000000000E+01 0. -1.
         -5    1    4    4    0  502 -0.18070766469E+02 -0.45483701298E+02  0.11526012479E+02  0.50500085626E+02  0.47000000000E+01 0.  1.
<mgrwt>
<rscale>  0 0.10808193E+03</rscale>
<asrwt>0</asrwt>
<pdfrwt beam="1">  1        1 0.25741280E-01 0.10812209E+03</pdfrwt>
<pdfrwt beam="2">  1       -1 0.10745384E-01 0.10812209E+03</pdfrwt>
<totfact> 0.92917353E+03</totfact>
</mgrwt>
</event>
<event>
 8    1  0.1893090E-003  0.1037512E+03  0.7546771E-02  0.1272847E+00
         -2   -1    0    0    0  501 -0.00000000000E+00  0.00000000000E+00  0.57172509155E+02  0.57172509155E+02  0.00000000000E+00 0.  1.
          2   -1    0    0  501    0  0.00000000000E+00 -0.00000000000E+00 -0.19920346629E+03  0.19920346629E+03  0.00000000000E+00 0. -1.
         23    2    1    2    0    0 -0.44743555811E+02 -0.11279517114E+02 -0.10239951856E+03  0.14577370881E+03  0.92925236009E+02 0.  0.
         23    2    1    2    0    0  0.44743555811E+02  0.11279517114E+02 -0.39631438579E+02  0.11060226663E+03  0.92374223503E+02 0.  0.
          5    1    4    4  502    0  0.93711992487E+01  0.40063738536E+02 -0.48638195268E+02  0.63880251719E+02  0.47000000000E+01 0. -1.
         -5    1    4    4    0  502  0.35372356562E+02 -0.28784221421E+02  0.90067566889E+01  0.46722014914E+02  0.47000000000E+01 0.  1.
          5    1    3    3  503    0 -0.42137069155E+02  0.11814563858E+02 -0.35909399138E+01  0.44159952056E+02  0.47000000000E+01 0. -1.
         -5    1    3    3    0  503 -0.26064866561E+01 -0.23094080973E+02 -0.98808578644E+02  0.10161375676E+03  0.47000000000E+01 0.  1.
<mgrwt>
<rscale>  0 0.10362768E+03</rscale>
<asrwt>0</asrwt>
<pdfrwt beam="1">  1        2 0.30646687E-01 0.10375121E+03</pdfrwt>
<pdfrwt beam="2">  1       -2 0.87957707E-02 0.10375121E+03</pdfrwt>
<totfact> 0.12774662E+04</totfact>
</mgrwt>
</event>
<event>
 8    1  0.1893090E-003  0.1097288E+03  0.7546771E-02  0.1262283E+00
          1   -1    0    0  501    0  0.00000000000E+00  0.00000000000E+00  0.27696709320E+03  0.27696709320E+03  0.00000000000E+00 0. -1.
         -1   -1    0    0    0  501 -0.00000000000E+00 -0.00000000000E+00 -0.46057792936E+02  0.46057792936E+02  0.00000000000E+00 0.  1.
         23    2    1    2    0    0 -0.36681928861E+01 -0.53828508044E+02  0.15933425616E+03  0.19201576003E+03  0.92583384026E+02 0.  0.
         23    2    1    2    0    0  0.36681928861E+01  0.53828508044E+02  0.71575044111E+02  0.13100912611E+03  0.95548104465E+02 0.  0.
          5    1    4    4  502    0 -0.11354916397E+02  0.37665896884E+02  0.92255725068E+02  0.10040349955E+03  0.47000000000E+01 0. -1.
         -5    1    3    3    0  503  0.18360080277E+02 -0.72670760854E+02  0.13214690290E+03  0.15199679594E+03  0.47000000000E+01 0.  1.
          5    1    3    3  503    0 -0.22028273163E+02  0.18842252810E+02  0.27187353256E+02  0.40018964087E+02  0.47000000000E+01 0. -1.
         -5    1    4    4    0  502  0.15023109283E+02  0.16162611161E+02 -0.20680680957E+02  0.30605626557E+02  0.47000000000E+01 0.  1.
<mgrwt>
<rscale>  0 0.10908013E+03</rscale>
<asrwt>0</asrwt>
<pdfrwt beam="1">  1        1 0.42610321E-01 0.10972878E+03</pdfrwt>
<pdfrwt beam="2">  1       -1 0.70858145E-02 0.10972878E+03</pdfrwt>
<totfact> 0.93595308E+03</totfact>
</mgrwt>
</event>
<event>
 8    1  0.1893090E-003  0.1160247E+03  0.7546771E-02  0.1253902E+00
         -1   -1    0    0    0  501 -0.00000000000E+00  0.00000000000E+00  0.37280807548E+02  0.37280807548E+02  0.00000000000E+00 0.  1.
          1   -1    0    0  501    0  0.00000000000E+00 -0.00000000000E+00 -0.87138789961E+03  0.87138789961E+03  0.00000000000E+00 0. -1.
         23    2    1    2    0    0  0.18503958969E+02  0.47839123143E+02 -0.76744221344E+03  0.77485560630E+03  0.93822606252E+02 0.  0.
         23    2    1    2    0    0 -0.18503958969E+02 -0.47839123143E+02 -0.66664878625E+02  0.13381310086E+03  0.10407094561E+03 0.  0.
          5    1    3    3  502    0 -0.27896204359E+02  0.46040434115E+02 -0.53850338451E+03  0.54120782045E+03  0.47000000000E+01 0. -1.
         -5    1    3    3    0  502  0.46400163328E+02  0.17986890280E+01 -0.22893882893E+03  0.23364778585E+03  0.47000000000E+01 0.  1.
          5    1    4    4  503    0 -0.56001619355E+02 -0.13641840915E+02 -0.11977286156E+02  0.59057824016E+02  0.47000000000E+01 0. -1.
         -5    1    4    4    0  503  0.37497660386E+02 -0.34197282228E+02 -0.54687592469E+02  0.74755276846E+02  0.47000000000E+01 0.  1.
<mgrwt>
<rscale>  0 0.11368053E+03</rscale>
<asrwt>0</asrwt>
<pdfrwt beam="1">  1        1 0.13405967E+00 0.11602474E+03</pdfrwt>
<pdfrwt beam="2">  1       -1 0.57355093E-02 0.11602474E+03</pdfrwt>
<totfact> 0.28182479E+03</totfact>
</mgrwt>
</event>
<event>
 8    1  0.1893090E-003  0.9876145E+02  0.7546771E-02  0.1283391E+00
          1   -1    0    0  501    0  0.00000000000E+00  0.00000000000E+00  0.11225970851E+03  0.11225970851E+03  0.00000000000E+00 0. -1.
         -1   -1    0    0    0  501 -0.00000000000E+00 -0.00000000000E+00 -0.86904158243E+02  0.86904158243E+02  0.00000000000E+00 0.  1.
         23    2    1    2    0    0 -0.17422707971E+02  0.34287569275E+02  0.22077974253E+02  0.10034804840E+03  0.90017252300E+02 0.  0.
         23    2    1    2    0    0  0.17422707971E+02 -0.34287569275E+02  0.32775760155E+01  0.98815818351E+02  0.90965022355E+02 0.  0.
          5    1    4    4  502    0  0.43466979195E+02  0.42751923888E+01  0.21139424416E+02  0.48750598098E+02  0.47000000000E+01 0. -1.
         -5    1    4    4    0  502 -0.26044271224E+02 -0.38562761664E+02 -0.17861848400E+02  0.50065220253E+02  0.47000000000E+01 0.  1.
          5    1    3    3  503    0 -0.42063526118E+02  0.21471711759E+02 -0.18510601222E+02  0.50942192659E+02  0.47000000000E+01 0. -1.
         -5    1    3    3    0  503  0.24640818147E+02  0.12815857516E+02  0.40588575474E+02  0.49405855745E+02  0.47000000000E+01 0.  1.
<mgrwt>
<rscale>  0 0.98542657E+02</rscale>
<asrwt>0</asrwt>
<pdfrwt beam="1">  1        1 0.17270724E-01 0.98761447E+02</pdfrwt>
<pdfrwt beam="2">  1       -1 0.13369871E-01 0.98761447E+02</pdfrwt>
<totfact> 0.10891070E+04</totfact>
</mgrwt>
</event>
<event>
 8    1  0.1893090E-003  0.1357331E+03  0.7546771E-02  0.1220248E+00
         -1   -1    0    0    0  501 -0.00000000000E+00  0.00000000000E+00  0.71887150399E+03  0.71887150399E+03  0.00000000000E+00 0.  1.
          1   -1    0    0  501    0  0.00000000000E+00 -0.00000000000E+00 -0.25078480520E+02  0.25078480520E+02  0.00000000000E+00 0. -1.
         23    2    1    2    0    0  0.31188057468E+02 -0.93871611708E+02  0.35092586811E+03  0.37519347669E+03  0.88524604618E+02 0.  0.
         23    2    1    2    0    0 -0.31188057468E+02  0.93871611708E+02  0.34286715536E+03  0.36875650783E+03  0.92945690744E+02 0.  0.
          5    1    3    3  502    0  0.56333444106E+02 -0.90686559569E+02  0.28843177984E+03  0.30759143459E+03  0.47000000000E+01 0. -1.
         -5    1    3    3    0  502 -0.25145386639E+02 -0.31850521385E+01  0.62494088275E+02  0.67602042096E+02  0.47000000000E+01 0.  1.
          5    1    4    4  503    0 -0.26112940435E+02  0.25932099351E+02  0.25392575748E+03  0.25662178346E+03  0.47000000000E+01 0. -1.
         -5    1    4    4    0  503 -0.50751170331E+01  0.67939512357E+02  0.88941397882E+02  0.11213472437E+03  0.47000000000E+01 0.  1.
<mgrwt>
<rscale>  0 0.13497978E+03</rscale>
<asrwt>0</asrwt>
<pdfrwt beam="1">  1        1 0.38582283E-02 0.13573311E+03</pdfrwt>
<pdfrwt beam="2">  1       -1 0.11059560E+00 0.13573311E+03</pdfrwt>
<totfact> 0.18626023E+03</totfact>
</mgrwt>
</event>
<event>
 8    1  0.1893090E-003  0.1222911E+03  0.7546771E-02  0.1239472E+00
          1   -1    0    0  501    0  0.00000000000E+00  0.00000000000E+00  0.12347341318E+04  0.12347341318E+04  0.00000000000E+00 0. -1.
         -1   -1    0    0    0  501 -0.00000000000E+00 -0.00000000000E+00 -0.23235982778E+02  0.23235982778E+02  0.00000000000E+00 0.  1.
         23    2    1    2    0    0  0.51633087380E+02 -0.63220759959E+02  0.10418132011E+04  0.10489660879E+04  0.91061887832E+02 0.  0.
         23    2    1    2    0    0 -0.51633087380E+02  0.63220759959E+02  0.16968494793E+03  0.20900402667E+03  0.90702047421E+02 0.  0.
          5    1    3    3  502    0  0.43065700863E+01 -0.71971037891E+02  0.70627591805E+03  0.70996206889E+03  0.47000000000E+01 0. -1.
         -5    1    4    4    0  503 -0.92641736465E+01  0.76285420955E+02  0.11591535113E+03  0.13915368839E+03  0.47000000000E+01 0.  1.
          5    1    4    4  503    0 -0.42368913734E+02 -0.13064660995E+02  0.53769596798E+02  0.69850338280E+02  0.47000000000E+01 0. -1.
         -5    1    3    3    0  502  0.47326517294E+02  0.87502779320E+01  0.33553728301E+03  0.33900401899E+03  0.47000000000E+01 0.  1.
<mgrwt>
<rscale>  0 0.12222409E+03</rscale>
<asrwt>0</asrwt>
<pdfrwt beam="1">  1        1 0.18995905E+00 0.12229108E+03</pdfrwt>
<pdfrwt beam="2">  1       -1 0.35747675E-02 0.12229108E+03</pdfrwt>
<totfact> 0.31030519E+03</totfact>
</mgrwt>
</event>
<event>
 8    1  0.1893090E-003  0.9467259E+02  0.7546771E-02  0.1292459E+00
          3   -1    0    0  501    0  0.00000000000E+00  0.00000000000E+00  0.13124617046E+03  0.13124617046E+03  0.00000000000E+00 0. -1.
         -3   -1    0    0    0  501 -0.00000000000E+00 -0.00000000000E+00 -0.18354313960E+03  0.18354313960E+03  0.00000000000E+00 0.  1.
         23    2    1    2    0    0 -0.10156378379E+02 -0.21516548873E+02  0.98994081336E+02  0.13631835460E+03  0.90646300327E+02 0.  0.
         23    2    1    2    0    0  0.10156378379E+02  0.21516548873E+02 -0.15129105048E+03  0.17847095546E+03  0.91633978918E+02 0.  0.
          5    1    3    3  502    0  0.22770057809E+02  0.33960203579E+01  0.91020730907E+02  0.94004637874E+02  0.47000000000E+01 0. -1.
         -5    1    4    4    0  503 -0.29973182188E+02  0.39665864190E+02 -0.88723356396E+02  0.10181206413E+03  0.47000000000E+01 0.  1.
          5    1    4    4  503    0  0.40129560567E+02 -0.18149315317E+02 -0.62567694081E+02  0.76658891332E+02  0.47000000000E+01 0. -1.
         -5    1    3    3    0  502 -0.32926436188E+02 -0.24912569231E+02  0.79733504287E+01  0.42313716722E+02  0.47000000000E+01 0.  1.
<mgrwt>
<rscale>  0 0.94432772E+02</rscale>
<asrwt>0</asrwt>
<pdfrwt beam="1">  1        3 0.20191719E-01 0.94672594E+02</pdfrwt>
<pdfrwt beam="2">  1       -3 0.28237406E-01 0.94672594E+02</pdfrwt>
<totfact> 0.57990425E+02</totfact>
</mgrwt>
</event>
<event>
 8    1  0.1893090E-003  0.1551857E+03  0.7546771E-02  0.1194765E+00
          1   -1    0    0  501    0  0.00000000000E+00  0.00000000000E+00  0.11890663294E+04  0.11890663294E+04  0.00000000000E+00 0. -1.
         -1   -1    0    0    0  501 -0.00000000000E+00 -0.00000000000E+00 -0.42788384290E+02  0.42788384290E+02  0.00000000000E+00 0.  1.
         23    2    1    2    0    0  0.96992485987E+02  0.76371650655E+02  0.12233557293E+03  0.19621935503E+03  0.91081675012E+02 0.  0.
         23    2    1    2    0    0 -0.96992485987E+02 -0.76371650655E+02  0.10239423722E+04  0.10356353587E+04  0.94034266092E+02 0.  0.
          5    1    3    3  502    0 -0.10077155584E+02  0.22767121638E+02  0.51847226282E+00  0.25342645991E+02  0.47000000000E+01 0. -1.
         -5    1    4    4    0  503 -0.13500341019E+02 -0.43946340117E+02  0.14638191095E+03  0.15350340019E+03  0.47000000000E+01 0.  1.
          5    1    4    4  503    0 -0.83492144968E+02 -0.32425310539E+02  0.87756046127E+03  0.88213195850E+03  0.47000000000E+01 0. -1.
         -5    1    3    3    0  502  0.10706964157E+03  0.53604529018E+02  0.12181710067E+03  0.17087670904E+03  0.47000000000E+01 0.  1.
<mgrwt>
<rscale>  0 0.15474105E+03</rscale>
<asrwt>0</asrwt>
<pdfrwt beam="1">  1        1 0.18293326E+00 0.15518574E+03</pdfrwt>
<pdfrwt beam="2">  1       -1 0.65828293E-02 0.15518574E+03</pdfrwt>
<totfact> 0.13554064E+03</totfact>
</mgrwt>
</event>
<event>
 8    1  0.1893090E-003  0.1093674E+03  0.7546771E-02  0.1266099E+00
         -1   -1    0    0    0  501 -0.00000000000E+00  0.00000000000E+00  0.14456509322E+03  0.14456509322E+03  0.00000000000E+00 0.  1.
          1   -1    0    0  501    0  0.00000000000E+00 -0.00000000000E+00 -0.80341477622E+02  0.80341477622E+02  0.00000000000E+00 0. -1.
         23    2    1    2    0    0 -0.27366283991E+01  0.61223601231E+02  0.59120033247E+02  0.12432377633E+03  0.90583688088E+02 0.  0.
         23    2    1    2    0    0  0.27366283991E+01 -0.61223601231E+02  0.51035823501E+01  0.10058279451E+03  0.79592923778E+02 0.  0.
          5    1    4    4  502    0 -0.21776468819E+02  0.26383958818E+01 -0.17429695659E+02  0.28408801766E+02  0.47000000000E+01 0. -1.
         -5    1    3    3    0  503  0.27747059904E+02  0.63431014454E+02  0.62275886998E+02  0.93240383040E+02  0.47000000000E+01 0.  1.
          5    1    3    3  503    0 -0.30483688303E+02 -0.22074132227E+01 -0.31558537517E+01  0.31083393292E+02  0.47000000000E+01 0. -1.
         -5    1    4    4    0  502  0.24513097218E+02 -0.63861997113E+02  0.22533278009E+02  0.72173992742E+02  0.47000000000E+01 0.  1.
<mgrwt>
<rscale>  0 0.10706729E+03</rscale>
<asrwt>0</asrwt>
<pdfrwt beam="1">  1        1 0.12360227E-01 0.10936738E+03</pdfrwt>
<pdfrwt beam="2">  1       -1 0.22240784E-01 0.10936738E+03</pdfrwt>
<totfact> 0.75823253E+03</totfact>
</mgrwt>
</event>
<event>
 8    1  0.1893090E-003  0.1656813E+03  0.7546771E-02  0.1186982E+00
         -1   -1    0    0    0  501 -0.00000000000E+00  0.00000000000E+00  0.17703544717E+03  0.17703544717E+03  0.00000000000E+00 0.  1.
          1   -1    0    0  501    0  0.00000000000E+00 -0.00000000000E+00 -0.20057311815E+03  0.20057311815E+03  0.00000000000E+00 0. -1.
         23    2    1    2    0    0  0.12219863992E+02 -0.11724523675E+03  0.91094991457E+02  0.18907300365E+03  0.11642393492E+03 0.  0.
         23    2    1    2    0    0 -0.12219863992E+02  0.11724523675E+03 -0.11463266244E+03  0.18853556168E+03  0.92245542443E+02 0.  0.
          5    1    3    3  502    0  0.13464311026E+02 -0.20835066462E+02 -0.26719443323E+02  0.36761478715E+02  0.47000000000E+01 0. -1.
         -5    1    4    4    0  503 -0.29814248995E+02  0.10181200392E+03 -0.45738480065E+02  0.11562297412E+03  0.47000000000E+01 0.  1.
          5    1    4    4  503    0  0.17594385002E+02  0.15433232836E+02 -0.68894182376E+02  0.72912587559E+02  0.47000000000E+01 0. -1.
         -5    1    3    3    0  502 -0.12444470336E+01 -0.96410170292E+02  0.11781443478E+03  0.15231152493E+03  0.47000000000E+01 0.  1.
<mgrwt>
<rscale>  0 0.16152819E+03</rscale>
<asrwt>0</asrwt>
<pdfrwt beam="1">  1        1 0.30857403E-01 0.16568133E+03</pdfrwt>
<pdfrwt beam="2">  1       -1 0.27236223E-01 0.16568133E+03</pdfrwt>
<totfact> 0.17350631E+03</totfact>
</mgrwt>
</event>
<event>
 8    1  0.1893090E-003  0.1070833E+03  0.7546771E-02  0.1266599E+00
          2   -1    0    0  501    0  0.00000000000E+00  0.00000000000E+00  0.29518191285E+03  0.29518191285E+03  0.00000000000E+00 0. -1.
         -2   -1    0    0    0  501 -0.00000000000E+00 -0.00000000000E+00 -0.56945219708E+02  0.56945219708E+02  0.00000000000E+00 0.  1.
         23    2    1    2    0    0 -0.58378560835E+01 -0.58475022928E+02  0.18362032247E+02  0.10756284719E+03  0.88199733542E+02 0.  0.
         23    2    1    2    0    0  0.58378560835E+01  0.58475022928E+02  0.21987466089E+03  0.24456428537E+03  0.89517675935E+02 0.  0.
          5    1    4    4  502    0  0.39595559900E+02  0.60963672557E+02  0.15354826454E+03  0.16995157334E+03  0.47000000000E+01 0. -1.
         -5    1    3    3    0  503  0.31780173940E+02 -0.47700330220E+01 -0.12678784510E+02  0.34865086366E+02  0.47000000000E+01 0.  1.
          5    1    3    3  503    0 -0.37618030023E+02 -0.53704989906E+02  0.31040816756E+02  0.72697760822E+02  0.47000000000E+01 0. -1.
         -5    1    4    4    0  502 -0.33757703816E+02 -0.24886496289E+01  0.66326396347E+02  0.74612712029E+02  0.47000000000E+01 0.  1.
<mgrwt>
<rscale>  0 0.10680737E+03</rscale>
<asrwt>0</asrwt>
<pdfrwt beam="1">  1        2 0.45412601E-01 0.10708325E+03</pdfrwt>
<pdfrwt beam="2">  1       -2 0.87608032E-02 0.10708325E+03</pdfrwt>
<totfact> 0.84977406E+03</totfact>
</mgrwt>
</event>
<event>
 8    1  0.1893090E-003  0.9869458E+02  0.7546771E-02  0.1284563E+00
         -4   -1    0    0    0  501 -0.00000000000E+00  0.00000000000E+00  0.30338972391E+02  0.30338972391E+02  0.00000000000E+00 0.  1.
          4   -1    0    0  501    0  0.00000000000E+00 -0.00000000000E+00 -0.45635791703E+03  0.45635791703E+03  0.00000000000E+00 0. -1.
         23    2    1    2    0    0  0.35848336045E+02  0.18693579276E+01 -0.35185503507E+03  0.36543478920E+03  0.91934877800E+02 0.  0.
         23    2    1    2    0    0 -0.35848336045E+02 -0.18693579276E+01 -0.74163909575E+02  0.12126210023E+03  0.88969735147E+02 0.  0.
          5    1    4    4  502    0 -0.55900049285E+02 -0.27604067490E+02 -0.54072278061E+02  0.82660155498E+02  0.47000000000E+01 0. -1.
         -5    1    4    4    0  502  0.20051713240E+02  0.25734709563E+02 -0.20091631514E+02  0.38601944731E+02  0.47000000000E+01 0.  1.
          5    1    3    3  503    0  0.29894775873E+02 -0.31591906294E+02 -0.30053274542E+03  0.30370012716E+03  0.47000000000E+01 0. -1.
         -5    1    3    3    0  503  0.59535601725E+01  0.33461264222E+02 -0.51322289652E+02  0.61734662040E+02  0.47000000000E+01 0.  1.
<mgrwt>
<rscale>  0 0.97998243E+02</rscale>
<asrwt>0</asrwt>
<pdfrwt beam="1">  1        4 0.70208904E-01 0.98694577E+02</pdfrwt>
<pdfrwt beam="2">  1       -4 0.46675346E-02 0.98694577E+02</pdfrwt>
<totfact> 0.78040204E+02</totfact>
</mgrwt>
</event>
<event>
 8    1  0.1893090E-003  0.1010186E+03  0.7546771E-02  0.1280930E+00
          1   -1    0    0  501    0  0.00000000000E+00  0.00000000000E+00  0.74179494074E+03  0.74179494074E+03  0.00000000000E+00 0. -1.
         -1   -1    0    0    0  501 -0.00000000000E+00 -0.00000000000E+00 -0.85550923287E+02  0.85550923287E+02  0.00000000000E+00 0.  1.
         23    2    1    2    0    0  0.25738288345E+02 -0.21664432730E+02 -0.51329042071E+02  0.11331122907E+03  0.95252070531E+02 0.  0.
         23    2    1    2    0    0 -0.25738288345E+02  0.21664432730E+02  0.70757305952E+03  0.71403463496E+03  0.89744182119E+02 0.  0.
          5    1    4    4  502    0 -0.31883814006E+02  0.50915635226E+02  0.56984698826E+03  0.57302413521E+03  0.47000000000E+01 0. -1.
         -5    1    3    3    0  503  0.23975379935E+02  0.27654725218E+02 -0.51963730938E+02  0.63733209577E+02  0.47000000000E+01 0.  1.
          5    1    3    3  503    0  0.17629084104E+01 -0.49319157948E+02  0.63468886748E+00  0.49578019491E+02  0.47000000000E+01 0. -1.
         -5    1    4    4    0  502  0.61455256610E+01 -0.29251202497E+02  0.13772607126E+03  0.14101049975E+03  0.47000000000E+01 0.  1.
<mgrwt>
<rscale>  0 0.99699019E+02</rscale>
<asrwt>0</asrwt>
<pdfrwt beam="1">  1        1 0.11412229E+00 0.10101863E+03</pdfrwt>
<pdfrwt beam="2">  1       -1 0.13161681E-01 0.10101863E+03</pdfrwt>
<totfact> 0.10227324E+03</totfact>
</mgrwt>
</event>
<event>
 8    1  0.1893090E-003  0.1006724E+03  0.7546771E-02  0.1282299E+00
         -1   -1    0    0    0  501 -0.00000000000E+00  0.00000000000E+00  0.29214874741E+03  0.29214874741E+03  0.00000000000E+00 0.  1.
          1   -1    0    0  501    0  0.00000000000E+00 -0.00000000000E+00 -0.16438196008E+03  0.16438196008E+03  0.00000000000E+00 0. -1.
         23    2    1    2    0    0 -0.24867510660E+02  0.22091171006E+01  0.26869436250E+03  0.28693481818E+03  0.97527719951E+02 0.  0.
         23    2    1    2    0    0  0.24867510660E+02 -0.22091171006E+01 -0.14092757518E+03  0.16959588931E+03  0.90988520925E+02 0.  0.
          5    1    4    4  502    0  0.35338820527E+02  0.36959416416E+02 -0.60120181117E+02  0.79065522674E+02  0.47000000000E+01 0. -1.
         -5    1    4    4    0  502 -0.10471309867E+02 -0.39168533517E+02 -0.80807394060E+02  0.90530366635E+02  0.47000000000E+01 0.  1.
          5    1    3    3  503    0  0.36867567103E+02 -0.67764284597E+01  0.11265486477E+03  0.11882064653E+03  0.47000000000E+01 0. -1.
         -5    1    3    3    0  503 -0.61735077762E+02  0.89855455603E+01  0.15603949773E+03  0.16811417165E+03  0.47000000000E+01 0.  1.
<mgrwt>
<rscale>  0 0.99053505E+02</rscale>
<asrwt>0</asrwt>
<pdfrwt beam="1">  1        1 0.25289532E-01 0.10067239E+03</pdfrwt>
<pdfrwt beam="2">  1       -1 0.44945961E-01 0.10067239E+03</pdfrwt>
<totfact> 0.92856720E+02</totfact>
</mgrwt>
</event>
<event>
 8    1  0.1893090E-003  0.9255862E+02  0.7546771E-02  0.1298118E+00
          1   -1    0    0  501    0  0.00000000000E+00  0.00000000000E+00  0.19133174499E+03  0.19133174499E+03  0.00000000000E+00 0. -1.
         -1   -1    0    0    0  501 -0.00000000000E+00 -0.00000000000E+00 -0.16819613189E+03  0.16819613189E+03  0.00000000000E+00 0.  1.
         23    2    1    2    0    0  0.90623877985E+01 -0.25869321322E+01 -0.14306182413E+03  0.17039302897E+03  0.92077574397E+02 0.  0.
         23    2    1    2    0    0 -0.90623877985E+01  0.25869321322E+01  0.16619743723E+03  0.18913484791E+03  0.89786321132E+02 0.  0.
          5    1    3    3  502    0 -0.40798914373E+02  0.48934327594E+01 -0.73726563195E+02  0.84535159660E+02  0.47000000000E+01 0. -1.
         -5    1    3    3    0  502  0.49861302171E+02 -0.74803648916E+01 -0.69335260940E+02  0.85857869312E+02  0.47000000000E+01 0.  1.
          5    1    4    4  503    0 -0.23461322075E+02  0.35934441190E+02  0.13253498334E+03  0.13938912980E+03  0.47000000000E+01 0. -1.
         -5    1    4    4    0  503  0.14398934277E+02 -0.33347509058E+02  0.33662453891E+02  0.49745718114E+02  0.47000000000E+01 0.  1.
<mgrwt>
<rscale>  0 0.91983525E+02</rscale>
<asrwt>0</asrwt>
<pdfrwt beam="1">  1        1 0.29435653E-01 0.92558624E+02</pdfrwt>
<pdfrwt beam="2">  1       -1 0.25876328E-01 0.92558624E+02</pdfrwt>
<totfact> 0.19594721E+03</totfact>
</mgrwt>
</event>
<event>
 8    1  0.1893090E-003  0.1032255E+03  0.7546771E-02  0.1274843E+00
         -1   -1    0    0    0  501 -0.00000000000E+00  0.00000000000E+00  0.94546554173E+02  0.94546554173E+02  0.00000000000E+00 0.  1.
          1   -1    0    0  501    0  0.00000000000E+00 -0.00000000000E+00 -0.13320650162E+03  0.13320650162E+03  0.00000000000E+00 0. -1.
         23    2    1    2    0    0 -0.29976849022E+02 -0.31437480388E+02 -0.66862615862E+02  0.12298830136E+03  0.93640729499E+02 0.  0.
         23    2    1    2    0    0  0.29976849022E+02  0.31437480388E+02  0.28202668417E+02  0.10476475443E+03  0.91067758371E+02 0.  0.
          5    1    3    3  502    0 -0.16913417564E+02  0.24770670795E+02 -0.56543307394E+02  0.64178543427E+02  0.47000000000E+01 0. -1.
         -5    1    4    4    0  503  0.22401408645E+02 -0.25141504059E+02  0.32878759783E+02  0.47297158271E+02  0.47000000000E+01 0.  1.
          5    1    4    4  503    0  0.75754403774E+01  0.56578984447E+02 -0.46760913665E+01  0.57467596160E+02  0.47000000000E+01 0. -1.
         -5    1    3    3    0  502 -0.13063431458E+02 -0.56208151183E+02 -0.10319308467E+02  0.58809757933E+02  0.47000000000E+01 0.  1.
<mgrwt>
<rscale>  0 0.10263849E+03</rscale>
<asrwt>0</asrwt>
<pdfrwt beam="1">  1        1 0.20493308E-01 0.10322554E+03</pdfrwt>
<pdfrwt beam="2">  1       -1 0.14545624E-01 0.10322554E+03</pdfrwt>
<totfact> 0.77298520E+03</totfact>
</mgrwt>
</event>
<event>
 8    1  0.1893090E-003  0.1472101E+03  0.7546771E-02  0.1204528E+00
          1   -1    0    0  501    0  0.00000000000E+00  0.00000000000E+00  0.43758249784E+03  0.43758249784E+03  0.00000000000E+00 0. -1.
         -1   -1    0    0    0  501 -0.00000000000E+00 -0.00000000000E+00 -0.49025432427E+02  0.49025432427E+02  0.00000000000E+00 0.  1.
         23    2    1    2    0    0  0.11107076789E+03  0.19296075394E+02  0.18345900785E+03  0.23521908418E+03  0.94666551629E+02 0.  0.
         23    2    1    2    0    0 -0.11107076789E+03 -0.19296075394E+02  0.20509805756E+03  0.25138884608E+03  0.91771916806E+02 0.  0.
          5    1    4    4  502    0 -0.70830668945E+02  0.33407134944E+02  0.12066459085E+03  0.14392725181E+03  0.47000000000E+01 0. -1.
         -5    1    4    4    0  502 -0.40240098942E+02 -0.52703210338E+02  0.84433466715E+02  0.10746159428E+03  0.47000000000E+01 0.  1.
          5    1    3    3  503    0  0.58862086310E+02  0.55218094690E+02  0.79557323865E+02  0.11342504559E+03  0.47000000000E+01 0. -1.
         -5    1    3    3    0  503  0.52208681578E+02 -0.35922019295E+02  0.10390168398E+03  0.12179403859E+03  0.47000000000E+01 0.  1.
<mgrwt>
<rscale>  0 0.14674677E+03</rscale>
<asrwt>0</asrwt>
<pdfrwt beam="1">  1        1 0.67320382E-01 0.14721009E+03</pdfrwt>
<pdfrwt beam="2">  1       -1 0.75423745E-02 0.14721009E+03</pdfrwt>
<totfact> 0.49124566E+03</totfact>
</mgrwt>
</event>
<event>
 8    1  0.1893090E-003  0.1208132E+03  0.7546771E-02  0.1242612E+00
         -2   -1    0    0    0  501 -0.00000000000E+00  0.00000000000E+00  0.35158428685E+03  0.35158428685E+03  0.00000000000E+00 0.  1.
          2   -1    0    0  501    0  0.00000000000E+00 -0.00000000000E+00 -0.44422074686E+02  0.44422074686E+02  0.00000000000E+00 0. -1.
         23    2    1    2    0    0 -0.48272382035E+02  0.60035399579E+02  0.21126317323E+03  0.24336794643E+03  0.93066411326E+02 0.  0.
         23    2    1    2    0    0  0.48272382035E+02 -0.60035399579E+02  0.95899038933E+02  0.15263841510E+03  0.90373602492E+02 0.  0.
          5    1    3    3  502    0 -0.25045277664E+02 -0.22219193540E+02  0.77585753796E+02  0.84632131528E+02  0.47000000000E+01 0. -1.
         -5    1    4    4    0  503 -0.18951195143E+02 -0.65536647001E+01  0.52260045771E+02  0.56172063362E+02  0.47000000000E+01 0.  1.
          5    1    4    4  503    0  0.67223577178E+02 -0.53481734879E+02  0.43638993162E+02  0.96466351742E+02  0.47000000000E+01 0. -1.
         -5    1    3    3    0  502 -0.23227104371E+02  0.82254593119E+02  0.13367741944E+03  0.15873581491E+03  0.47000000000E+01 0.  1.
<mgrwt>
<rscale>  0 0.12029438E+03</rscale>
<asrwt>0</asrwt>
<pdfrwt beam="1">  1        2 0.68341655E-02 0.12081320E+03</pdfrwt>
<pdfrwt beam="2">  1       -2 0.54089889E-01 0.12081320E+03</pdfrwt>
<totfact> 0.32382242E+03</totfact>
</mgrwt>
</event>
<event>
 8    1  0.1893090E-003  0.9587467E+02  0.7546771E-02  0.1289702E+00
          2   -1    0    0  501    0  0.00000000000E+00  0.00000000000E+00  0.63176707961E+02  0.63176707961E+02  0.00000000000E+00 0. -1.
         -2   -1    0    0    0  501 -0.00000000000E+00 -0.00000000000E+00 -0.39985207372E+03  0.39985207372E+03  0.00000000000E+00 0.  1.
         23    2    1    2    0    0 -0.19524528040E+02  0.68777114937E+01 -0.35373804177E+03  0.36650041574E+03  0.93613259893E+02 0.  0.
         23    2    1    2    0    0  0.19524528040E+02 -0.68777114937E+01  0.17062676012E+02  0.96528365945E+02  0.92725834635E+02 0.  0.
          5    1    3    3  502    0 -0.96948167112E+01  0.38375740953E+02 -0.67969653012E+02  0.78794991563E+02  0.47000000000E+01 0. -1.
         -5    1    3    3    0  502 -0.98297113289E+01 -0.31498029460E+02 -0.28576838876E+03  0.28770542418E+03  0.47000000000E+01 0.  1.
          5    1    4    4  503    0  0.27212091014E+02  0.36291988360E+02 -0.72407455488E+01  0.46174935978E+02  0.47000000000E+01 0. -1.
         -5    1    4    4    0  503 -0.76875629738E+01 -0.43169699853E+02  0.24303421561E+02  0.50353429967E+02  0.47000000000E+01 0.  1.
<mgrwt>
<rscale>  0 0.95657358E+02</rscale>
<asrwt>0</asrwt>
<pdfrwt beam="1">  1        2 0.97194936E-02 0.95874671E+02</pdfrwt>
<pdfrwt beam="2">  1       -2 0.61515703E-01 0.95874671E+02</pdfrwt>
<totfact> 0.15864325E+03</totfact>
</mgrwt>
</event>
<event>
 8    1  0.1893090E-003  0.1161248E+03  0.7546771E-02  0.1250080E+00
          2   -1    0    0  501    0  0.00000000000E+00  0.00000000000E+00  0.53037530560E+03  0.53037530560E+03  0.00000000000E+00 0. -1.
         -2   -1    0    0    0  501 -0.00000000000E+00 -0.00000000000E+00 -0.26454067654E+02  0.26454067654E+02  0.00000000000E+00 0.  1.
         23    2    1    2    0    0 -0.48658984705E+02  0.51853363949E+02  0.19022211040E+03  0.22232657444E+03  0.90488597474E+02 0.  0.
         23    2    1    2    0    0  0.48658984705E+02 -0.51853363949E+02  0.31369912754E+03  0.33450279881E+03  0.91806925908E+02 0.  0.
          5    1    3    3  502    0 -0.21415510481E+02  0.18247784024E+01  0.15195733220E+03  0.15354176863E+03  0.47000000000E+01 0. -1.
         -5    1    3    3    0  502 -0.27243474224E+02  0.50028585547E+02  0.38264778199E+02  0.68784805809E+02  0.47000000000E+01 0.  1.
          5    1    4    4  503    0  0.27700371436E+02 -0.74974945935E+02  0.26172073584E+03  0.27369396534E+03  0.47000000000E+01 0. -1.
         -5    1    4    4    0  503  0.20958613269E+02  0.23121581986E+02  0.51978391702E+02  0.60808833467E+02  0.47000000000E+01 0.  1.
<mgrwt>
<rscale>  0 0.11586411E+03</rscale>
<asrwt>0</asrwt>
<pdfrwt beam="1">  1        2 0.81596193E-01 0.11612485E+03</pdfrwt>
<pdfrwt beam="2">  1       -2 0.40698569E-02 0.11612485E+03</pdfrwt>
<totfact> 0.14570455E+04</totfact>
</mgrwt>
</event>
<event>
 8    1  0.1893090E-003  0.1070588E+03  0.7546771E-02  0.1268079E+00
          1   -1    0    0  501    0  0.00000000000E+00  0.00000000000E+00  0.19279049593E+03  0.19279049593E+03  0.00000000000E+00 0. -1.
         -1   -1    0    0    0  501 -0.00000000000E+00 -0.00000000000E+00 -0.60509653494E+02  0.60509653494E+02  0.00000000000E+00 0.  1.
         23    2    1    2    0    0 -0.49728239483E+02 -0.34947224386E+01  0.35541021609E+02  0.10900812012E+03  0.90191436113E+02 0.  0.
         23    2    1    2    0    0  0.49728239483E+02  0.34947224386E+01  0.96739820828E+02  0.14429202931E+03  0.94744318565E+02 0.  0.
          5    1    3    3  502    0  0.22682979381E+02  0.23491162890E+01  0.27089454738E+02  0.35720644716E+02  0.47000000000E+01 0. -1.
         -5    1    4    4    0  503 -0.93095463318E+01 -0.34399802056E+02  0.41311459169E+02  0.54760758697E+02  0.47000000000E+01 0.  1.
          5    1    4    4  503    0  0.59037785815E+02  0.37894524495E+02  0.55428361659E+02  0.89531270609E+02  0.47000000000E+01 0. -1.
         -5    1    3    3    0  502 -0.72411218864E+02 -0.58438387276E+01  0.84515668713E+01  0.73287475404E+02  0.47000000000E+01 0.  1.
<mgrwt>
<rscale>  0 0.10604263E+03</rscale>
<asrwt>0</asrwt>
<pdfrwt beam="1">  1        1 0.29660076E-01 0.10705885E+03</pdfrwt>
<pdfrwt beam="2">  1       -1 0.93091776E-02 0.10705885E+03</pdfrwt>
<totfact> 0.96819736E+03</totfact>
</mgrwt>
</event>
<event>
 8    1  0.1893090E-003  0.1048542E+03  0.7546771E-02  0.1271945E+00
         -1   -1    0    0    0  501 -0.00000000000E+00  0.00000000000E+00  0.15267276250E+02  0.15267276250E+02  0.00000000000E+00 0.  1.
          1   -1    0    0  501    0  0.00000000000E+00 -0.00000000000E+00 -0.70485200622E+03  0.70485200622E+03  0.00000000000E+00 0. -1.
         23    2    1    2    0    0  0.48704657320E+02  0.13896980787E+01 -0.38203506299E+03  0.39616309008E+03  0.92845730568E+02 0.  0.
         23    2    1    2    0    0 -0.48704657320E+02 -0.13896980787E+01 -0.30754966698E+03  0.32395619239E+03  0.89368574016E+02 0.  0.
          5    1    4    4  502    0 -0.27277835720E+02  0.41034107589E+02 -0.20406733050E+03  0.20998438914E+03  0.47000000000E+01 0. -1.
         -5    1    4    4    0  502 -0.21426821600E+02 -0.42423805668E+02 -0.10348233649E+03  0.11397180325E+03  0.47000000000E+01 0.  1.
          5    1    3    3  503    0  0.26457983070E+02 -0.27561753577E+02 -0.55402577663E+02  0.67462661822E+02  0.47000000000E+01 0.  1.
         -5    1    3    3    0  503  0.22246674250E+02  0.28951451655E+02 -0.32663248533E+03  0.32870042826E+03  0.47000000000E+01 0. -1.
<mgrwt>
<rscale>  0 0.10407913E+03</rscale>
<asrwt>0</asrwt>
<pdfrwt beam="1">  1        1 0.10843877E+00 0.10485421E+03</pdfrwt>
<pdfrwt beam="2">  1       -1 0.23488117E-02 0.10485421E+03</pdfrwt>
<totfact> 0.14098259E+04</totfact>
</mgrwt>
</event>
<event>
 8    1  0.1893090E-003  0.1102279E+03  0.7546771E-02  0.1261275E+00
          2   -1    0    0  501    0  0.00000000000E+00  0.00000000000E+00  0.13452307276E+03  0.13452307276E+03  0.00000000000E+00 0. -1.
         -2   -1    0    0    0  501 -0.00000000000E+00 -0.00000000000E+00 -0.11439328841E+03  0.11439328841E+03  0.00000000000E+00 0.  1.
         23    2    1    2    0    0 -0.57032500932E+02 -0.25081190256E+01  0.69353346013E+02  0.12819702889E+03  0.91463625502E+02 0.  0.
         23    2    1    2    0    0  0.57032500932E+02  0.25081190256E+01 -0.49223561663E+02  0.12071933229E+03  0.94293166992E+02 0.  0.
          5    1    3    3  502    0  0.17834354565E+02  0.10195201742E+02 -0.51684757876E+01  0.21698144696E+02  0.47000000000E+01 0. -1.
         -5    1    4    4    0  503  0.36659861636E+02 -0.15881466692E+02 -0.73493227572E+02  0.83782521676E+02  0.47000000000E+01 0.  1.
          5    1    4    4  503    0  0.20372639295E+02  0.18389585718E+02  0.24269665909E+02  0.36936810610E+02  0.47000000000E+01 0. -1.
         -5    1    3    3    0  502 -0.74866855497E+02 -0.12703320767E+02  0.74521821801E+02  0.10649888420E+03  0.47000000000E+01 0.  1.
<mgrwt>
<rscale>  0 0.10962030E+03</rscale>
<asrwt>0</asrwt>
<pdfrwt beam="1">  1        2 0.20695857E-01 0.11022794E+03</pdfrwt>
<pdfrwt beam="2">  1       -2 0.17598967E-01 0.11022794E+03</pdfrwt>
<totfact> 0.65255262E+03</totfact>
</mgrwt>
</event>
<event>
 8    1  0.1893090E-003  0.1179375E+03  0.7546771E-02  0.1259954E+00
         -2   -1    0    0    0  501 -0.00000000000E+00  0.00000000000E+00  0.14031561998E+03  0.14031561998E+03  0.00000000000E+00 0. -1.
          2   -1    0    0  501    0  0.00000000000E+00 -0.00000000000E+00 -0.27250464024E+03  0.27250464024E+03  0.00000000000E+00 0.  1.
         23    2    1    2    0    0 -0.12867542589E+02 -0.75203238768E+01 -0.24284703056E+03  0.26997026297E+03  0.11699202415E+03 0.  0.
         23    2    1    2    0    0  0.12867542589E+02  0.75203238768E+01  0.11065801030E+03  0.14284999725E+03  0.89099930112E+02 0.  0.
          5    1    3    3  502    0  0.48078679867E+02 -0.23994593821E+02 -0.97293869011E+02  0.11124516591E+03  0.47000000000E+01 0. -1.
         -5    1    4    4    0  503 -0.63206118945E+01 -0.35458108695E+02  0.22283907374E+02  0.42613262428E+02  0.47000000000E+01 0. -1.
          5    1    4    4  503    0  0.19188154483E+02  0.42978432572E+02  0.88374102928E+02  0.10023673482E+03  0.47000000000E+01 0. -1.
         -5    1    3    3    0  502 -0.60946222455E+02  0.16474269944E+02 -0.14555316155E+03  0.15872509707E+03  0.47000000000E+01 0.  1.
<mgrwt>
<rscale>  0 0.11033327E+03</rscale>
<asrwt>0</asrwt>
<pdfrwt beam="1">  1        2 0.41923791E-01 0.11793754E+03</pdfrwt>
<pdfrwt beam="2">  1       -2 0.21587019E-01 0.11793754E+03</pdfrwt>
<totfact> 0.21653670E+03</totfact>
</mgrwt>
</event>
<event>
 8    1  0.1893090E-003  0.9366818E+02  0.7546771E-02  0.1294933E+00
         -1   -1    0    0    0  501 -0.00000000000E+00  0.00000000000E+00  0.14112612441E+02  0.14112612441E+02  0.00000000000E+00 0.  1.
          1   -1    0    0  501    0  0.00000000000E+00 -0.00000000000E+00 -0.77110402284E+03  0.77110402284E+03  0.00000000000E+00 0. -1.
         23    2    1    2    0    0  0.36004961341E+01 -0.12911934342E+02 -0.55403008268E+03  0.56168357650E+03  0.91429896470E+02 0.  0.
         23    2    1    2    0    0 -0.36004961341E+01  0.12911934342E+02 -0.20296132772E+03  0.22353305878E+03  0.92704078659E+02 0.  0.
          5    1    4    4  502    0 -0.83208469913E+01  0.36138350793E+02 -0.19430275825E+03  0.19786578471E+03  0.47000000000E+01 0. -1.
         -5    1    4    4    0  502  0.47203508572E+01 -0.23226416451E+02 -0.86585694617E+01  0.25667274076E+02  0.47000000000E+01 0.  1.
          5    1    3    3  503    0 -0.36493479895E+02  0.17063586466E+02 -0.19714150777E+03  0.20127047509E+03  0.47000000000E+01 0. -1.
         -5    1    3    3    0  503  0.40093976029E+02 -0.29975520808E+02 -0.35688857491E+03  0.36041310140E+03  0.47000000000E+01 0.  1.
<mgrwt>
<rscale>  0 0.93351354E+02</rscale>
<asrwt>0</asrwt>
<pdfrwt beam="1">  1        1 0.11863140E+00 0.93668179E+02</pdfrwt>
<pdfrwt beam="2">  1       -1 0.21711709E-02 0.93668179E+02</pdfrwt>
<totfact> 0.13740942E+04</totfact>
</mgrwt>
</event>
<event>
 8    1  0.1893090E-003  0.1142608E+03  0.7546771E-02  0.1253400E+00
          2   -1    0    0  501    0  0.00000000000E+00  0.00000000000E+00  0.69207615246E+03  0.69207615246E+03  0.00000000000E+00 0. -1.
         -2   -1    0    0    0  501 -0.00000000000E+00 -0.00000000000E+00 -0.21510243699E+02  0.21510243699E+02  0.00000000000E+00 0.  1.
         23    2    1    2    0    0 -0.37036282132E+02  0.58373233921E+02  0.20713812360E+03  0.23656234350E+03  0.90974828850E+02 0.  0.
         23    2    1    2    0    0  0.37036282132E+02 -0.58373233921E+02  0.46342778517E+03  0.47702405266E+03  0.89484714429E+02 0.  0.
          5    1    4    4  502    0  0.66657861896E+02 -0.41308603693E+02  0.31898525585E+03  0.32851690176E+03  0.47000000000E+01 0. -1.
         -5    1    3    3    0  503 -0.11630069347E+02  0.79652457659E+02  0.15186581345E+03  0.17194501394E+03  0.47000000000E+01 0.  1.
          5    1    3    3  503    0 -0.25406212784E+02 -0.21279223738E+02  0.55272310147E+02  0.64617329563E+02  0.47000000000E+01 0. -1.
         -5    1    4    4    0  502 -0.29621579764E+02 -0.17064630228E+02  0.14444252931E+03  0.14850715089E+03  0.47000000000E+01 0.  1.
<mgrwt>
<rscale>  0 0.11396398E+03</rscale>
<asrwt>0</asrwt>
<pdfrwt beam="1">  1        2 0.10647324E+00 0.11426084E+03</pdfrwt>
<pdfrwt beam="2">  1       -2 0.33092688E-02 0.11426084E+03</pdfrwt>
<totfact> 0.14597027E+04</totfact>
</mgrwt>
</event>
<event>
 8    1  0.1893090E-003  0.9293045E+02  0.7546771E-02  0.1296212E+00
         -1   -1    0    0    0  501 -0.00000000000E+00  0.00000000000E+00  0.98040591062E+02  0.98040591062E+02  0.00000000000E+00 0.  1.
          1   -1    0    0  501    0  0.00000000000E+00 -0.00000000000E+00 -0.10537799603E+03  0.10537799603E+03  0.00000000000E+00 0. -1.
         23    2    1    2    0    0  0.16024645321E+02  0.48278813234E+01 -0.45464764511E+02  0.10345584965E+03  0.91410996711E+02 0.  0.
         23    2    1    2    0    0 -0.16024645321E+02 -0.48278813234E+01  0.38127359546E+02  0.99962737437E+02  0.90877696022E+02 0.  0.
          5    1    3    3  502    0  0.88299330270E+01 -0.26280708376E+02 -0.61347806400E+02  0.67485455470E+02  0.47000000000E+01 0. -1.
         -5    1    4    4    0  503 -0.46722719764E+02 -0.18481997052E+02  0.42213596753E+02  0.65792663025E+02  0.47000000000E+01 0.  1.
          5    1    4    4  503    0  0.30698074442E+02  0.13654115728E+02 -0.40862372072E+01  0.34170074412E+02  0.47000000000E+01 0. -1.
         -5    1    3    3    0  502  0.71947122942E+01  0.31108589699E+02  0.15883041888E+02  0.35970394183E+02  0.47000000000E+01 0.  1.
<mgrwt>
<rscale>  0 0.92799036E+02</rscale>
<asrwt>0</asrwt>
<pdfrwt beam="1">  1        1 0.16211999E-01 0.92930447E+02</pdfrwt>
<pdfrwt beam="2">  1       -1 0.15083168E-01 0.92930447E+02</pdfrwt>
<totfact> 0.97414939E+03</totfact>
</mgrwt>
</event>
<event>
 8    1  0.1893090E-003  0.1155202E+03  0.7546771E-02  0.1251252E+00
          1   -1    0    0  501    0  0.00000000000E+00  0.00000000000E+00  0.14665711844E+03  0.14665711844E+03  0.00000000000E+00 0. -1.
         -1   -1    0    0    0  501 -0.00000000000E+00 -0.00000000000E+00 -0.94927726302E+02  0.94927726302E+02  0.00000000000E+00 0.  1.
         23    2    1    2    0    0 -0.65850094293E+02  0.26029738771E+02  0.53646818235E+02  0.12736917753E+03  0.91275100983E+02 0.  0.
         23    2    1    2    0    0  0.65850094293E+02 -0.26029738771E+02 -0.19174261009E+01  0.11421566721E+03  0.89597767236E+02 0.  0.
          5    1    4    4  502    0  0.74691948333E+02  0.11145669286E+02  0.49252222630E-01  0.75665087824E+02  0.47000000000E+01 0. -1.
         -5    1    4    4    0  502 -0.88418540404E+01 -0.37175408057E+02 -0.19666783236E+01  0.38550579382E+02  0.47000000000E+01 0.  1.
          5    1    3    3  503    0 -0.42185009096E+02  0.74080314056E+01 -0.20120307470E+02  0.47553871498E+02  0.47000000000E+01 0. -1.
         -5    1    3    3    0  503 -0.23665085197E+02  0.18621707365E+02  0.73767125704E+02  0.79815306034E+02  0.47000000000E+01 0.  1.
<mgrwt>
<rscale>  0 0.11518865E+03</rscale>
<asrwt>0</asrwt>
<pdfrwt beam="1">  1        1 0.22562634E-01 0.11552024E+03</pdfrwt>
<pdfrwt beam="2">  1       -1 0.14604266E-01 0.11552024E+03</pdfrwt>
<totfact> 0.68665219E+03</totfact>
</mgrwt>
</event>
<event>
 8    1  0.1893090E-003  0.1029636E+03  0.7546771E-02  0.1278668E+00
          2   -1    0    0  501    0  0.00000000000E+00  0.00000000000E+00  0.60287429146E+03  0.60287429146E+03  0.00000000000E+00 0. -1.
         -2   -1    0    0    0  501 -0.00000000000E+00 -0.00000000000E+00 -0.47696458992E+02  0.47696458992E+02  0.00000000000E+00 0.  1.
         23    2    1    2    0    0 -0.18661583515E+02  0.20068283566E+02  0.91712647339E+01  0.94940774168E+02  0.90435876721E+02 0.  0.
         23    2    1    2    0    0  0.18661583515E+02 -0.20068283566E+02  0.54600656774E+03  0.55562997629E+03  0.99249724595E+02 0.  0.
          5    1    4    4  502    0 -0.66000685239E+01 -0.50498071157E+02  0.17018026997E+03  0.17769926950E+03  0.47000000000E+01 0. -1.
         -5    1    3    3    0  503 -0.29755423108E+02 -0.70357836189E+01 -0.31796836661E+02  0.44362329483E+02  0.47000000000E+01 0.  1.
          5    1    3    3  503    0  0.11093839594E+02  0.27104067184E+02  0.40968101395E+02  0.50578444685E+02  0.47000000000E+01 0. -1.
         -5    1    4    4    0  502  0.25261652039E+02  0.30429787591E+02  0.37582629777E+03  0.37793070679E+03  0.47000000000E+01 0.  1.
<mgrwt>
<rscale>  0 0.10077828E+03</rscale>
<asrwt>0</asrwt>
<pdfrwt beam="1">  1        2 0.92749885E-01 0.10296358E+03</pdfrwt>
<pdfrwt beam="2">  1       -2 0.73379172E-02 0.10296358E+03</pdfrwt>
<totfact> 0.51724068E+03</totfact>
</mgrwt>
</event>
<event>
 8    1  0.1893090E-003  0.1640965E+03  0.7546771E-02  0.1190198E+00
         -1   -1    0    0    0  501 -0.00000000000E+00  0.00000000000E+00  0.35594397212E+02  0.35594397212E+02  0.00000000000E+00 0.  1.
          1   -1    0    0  501    0  0.00000000000E+00 -0.00000000000E+00 -0.10084000464E+04  0.10084000464E+04  0.00000000000E+00 0. -1.
         23    2    1    2    0    0 -0.10871468615E+03 -0.20050604807E+02 -0.16048399537E+03  0.21526400491E+03  0.91447084702E+02 0.  0.
         23    2    1    2    0    0  0.10871468615E+03  0.20050604807E+02 -0.81232165379E+03  0.82873043868E+03  0.12127143538E+03 0.  0.
          5    1    4    4  502    0  0.83691819262E+02  0.32718112524E+01 -0.77923009587E+03  0.78373251666E+03  0.47000000000E+01 0. -1.
         -5    1    4    4    0  502  0.25022866887E+02  0.16778793555E+02 -0.33091557917E+02  0.44997922016E+02  0.47000000000E+01 0.  1.
          5    1    3    3  503    0 -0.30645371602E+02  0.28106339840E+02 -0.90781920199E+02  0.99962753938E+02  0.47000000000E+01 0. -1.
         -5    1    3    3    0  503 -0.78069314547E+02 -0.48156944648E+02 -0.69702075171E+02  0.11530125097E+03  0.47000000000E+01 0.  1.
<mgrwt>
<rscale>  0 0.15867715E+03</rscale>
<asrwt>0</asrwt>
<pdfrwt beam="1">  1        1 0.15513847E+00 0.16409653E+03</pdfrwt>
<pdfrwt beam="2">  1       -1 0.54760609E-02 0.16409653E+03</pdfrwt>
<totfact> 0.23997635E+03</totfact>
</mgrwt>
</event>
<event>
 8    1  0.1893090E-003  0.1199955E+03  0.7546771E-02  0.1244369E+00
         -2   -1    0    0    0  501 -0.00000000000E+00  0.00000000000E+00  0.43867102550E+02  0.43867102550E+02  0.00000000000E+00 0.  1.
          2   -1    0    0  501    0  0.00000000000E+00 -0.00000000000E+00 -0.32335325939E+03  0.32335325939E+03  0.00000000000E+00 0. -1.
         23    2    1    2    0    0  0.73003897414E+02  0.23508248476E+02 -0.15661806171E+03  0.19547782198E+03  0.88318485322E+02 0.  0.
         23    2    1    2    0    0 -0.73003897414E+02 -0.23508248476E+02 -0.12286809513E+03  0.17174253995E+03  0.92286101041E+02 0.  0.
          5    1    4    4  502    0 -0.15403960889E+02 -0.48769997279E+02 -0.81437807830E+02  0.96280845394E+02  0.47000000000E+01 0. -1.
         -5    1    3    3    0  503  0.31067237707E+02  0.54100294856E+02 -0.10431999281E+03  0.12164195848E+03  0.47000000000E+01 0.  1.
          5    1    3    3  503    0  0.41936659707E+02 -0.30592046380E+02 -0.52298068898E+02  0.73835863505E+02  0.47000000000E+01 0. -1.
         -5    1    4    4    0  502 -0.57599936525E+02  0.25261748803E+02 -0.41430287298E+02  0.75461694560E+02  0.47000000000E+01 0.  1.
<mgrwt>
<rscale>  0 0.11923232E+03</rscale>
<asrwt>0</asrwt>
<pdfrwt beam="1">  1        2 0.49746656E-01 0.11999555E+03</pdfrwt>
<pdfrwt beam="2">  1       -2 0.67487849E-02 0.11999555E+03</pdfrwt>
<totfact> 0.11621159E+04</totfact>
</mgrwt>
</event>
<event>
 8    1  0.1893090E-003  0.1032653E+03  0.7546771E-02  0.1274397E+00
         -1   -1    0    0    0  501 -0.00000000000E+00  0.00000000000E+00  0.84413435730E+02  0.84413435730E+02  0.00000000000E+00 0.  1.
          1   -1    0    0  501    0  0.00000000000E+00 -0.00000000000E+00 -0.12931461696E+03  0.12931461696E+03  0.00000000000E+00 0. -1.
         23    2    1    2    0    0  0.14405267444E+02 -0.42116830590E+02 -0.43202250393E+02  0.11044874685E+03  0.91384638162E+02 0.  0.
         23    2    1    2    0    0 -0.14405267444E+02  0.42116830590E+02 -0.16989308327E+01  0.10327930584E+03  0.93179340518E+02 0.  0.
          5    1    4    4  502    0 -0.24343809149E+02  0.67948846711E+02 -0.12108552167E+02  0.73337397342E+02  0.47000000000E+01 0. -1.
         -5    1    4    4    0  502  0.99385417054E+01 -0.25832016121E+02  0.10409621334E+02  0.29941908497E+02  0.47000000000E+01 0.  1.
          5    1    3    3  503    0  0.12899067738E+02  0.22585760559E+02 -0.36708740955E+02  0.45234104291E+02  0.47000000000E+01 0. -1.
         -5    1    3    3    0  503  0.15061997058E+01 -0.64702591149E+02 -0.64935094382E+01  0.65214642556E+02  0.47000000000E+01 0.  1.
<mgrwt>
<rscale>  0 0.10285882E+03</rscale>
<asrwt>0</asrwt>
<pdfrwt beam="1">  1        1 0.19894556E-01 0.10326533E+03</pdfrwt>
<pdfrwt beam="2">  1       -1 0.12986682E-01 0.10326533E+03</pdfrwt>
<totfact> 0.95614085E+03</totfact>
</mgrwt>
</event>
<event>
 8    1  0.1893090E-003  0.9967051E+02  0.7546771E-02  0.1291011E+00
         -2   -1    0    0    0  501 -0.00000000000E+00  0.00000000000E+00  0.29476765370E+03  0.29476765370E+03  0.00000000000E+00 0.  1.
          2   -1    0    0  501    0  0.00000000000E+00 -0.00000000000E+00 -0.49105188367E+02  0.49105188367E+02  0.00000000000E+00 0. -1.
         23    2    1    2    0    0  0.28423655206E+01 -0.46144688666E+01  0.41701312479E+01  0.82620554392E+02  0.82337073356E+02 0.  0.
         23    2    1    2    0    0 -0.28423655206E+01  0.46144688666E+01  0.24149233409E+03  0.26125228768E+03  0.99523052750E+02 0.  0.
          5    1    3    3  502    0  0.32415276882E+02 -0.21744646671E+02  0.20628154611E+02  0.44398092266E+02  0.47000000000E+01 0. -1.
         -5    1    3    3    0  502 -0.29572911361E+02  0.17130177804E+02 -0.16458023363E+02  0.38222462127E+02  0.47000000000E+01 0.  1.
          5    1    4    4  503    0  0.23108709282E+02  0.91507577455E+01  0.84361044149E+01  0.26664708318E+02  0.47000000000E+01 0. -1.
         -5    1    4    4    0  503 -0.25951074802E+02 -0.45362888789E+01  0.23305622967E+03  0.23458757936E+03  0.47000000000E+01 0.  1.
<mgrwt>
<rscale>  0 0.95073298E+02</rscale>
<asrwt>0</asrwt>
<pdfrwt beam="1">  1        2 0.75546446E-02 0.99670509E+02</pdfrwt>
<pdfrwt beam="2">  1       -2 0.45348869E-01 0.99670509E+02</pdfrwt>
<totfact> 0.39795084E+03</totfact>
</mgrwt>
</event>
<event>
 8    1  0.1893090E-003  0.1100015E+03  0.7546771E-02  0.1260624E+00
          1   -1    0    0  501    0  0.00000000000E+00  0.00000000000E+00  0.39572535287E+03  0.39572535287E+03  0.00000000000E+00 0. -1.
         -1   -1    0    0    0  501 -0.00000000000E+00 -0.00000000000E+00 -0.31581791407E+02  0.31581791407E+02  0.00000000000E+00 0.  1.
         23    2    1    2    0    0 -0.18032250923E+02 -0.57365638230E+02  0.22071191731E+03  0.24655046555E+03  0.91964140284E+02 0.  0.
         23    2    1    2    0    0  0.18032250923E+02  0.57365638230E+02  0.14343164416E+03  0.18075667873E+03  0.92110595681E+02 0.  0.
          5    1    4    4  502    0  0.28690456688E+02 -0.16504295536E+02  0.60232984812E+02  0.68888580588E+02  0.47000000000E+01 0. -1.
         -5    1    4    4    0  502 -0.10658205765E+02  0.73869933766E+02  0.83198659344E+02  0.11186809814E+03  0.47000000000E+01 0.  1.
          5    1    3    3  503    0 -0.37317264657E+02 -0.62705691477E+02  0.98784914762E+02  0.12290293475E+03  0.47000000000E+01 0. -1.
         -5    1    3    3    0  503  0.19285013734E+02  0.53400532474E+01  0.12192700255E+03  0.12364753081E+03  0.47000000000E+01 0.  1.
<mgrwt>
<rscale>  0 0.10997088E+03</rscale>
<asrwt>0</asrwt>
<pdfrwt beam="1">  1        1 0.60880820E-01 0.11000155E+03</pdfrwt>
<pdfrwt beam="2">  1       -1 0.48587374E-02 0.11000155E+03</pdfrwt>
<totfact> 0.10529357E+04</totfact>
</mgrwt>
</event>
<event>
 8    1  0.1893090E-003  0.1036107E+03  0.7546771E-02  0.1273299E+00
          3   -1    0    0  501    0  0.00000000000E+00  0.00000000000E+00  0.37490314113E+03  0.37490314113E+03  0.00000000000E+00 0. -1.
         -3   -1    0    0    0  501 -0.00000000000E+00 -0.00000000000E+00 -0.65254529924E+02  0.65254529924E+02  0.00000000000E+00 0.  1.
         23    2    1    2    0    0 -0.24709454834E+02  0.41507871295E+02  0.31993353711E+03  0.33603778697E+03  0.90721913387E+02 0.  0.
         23    2    1    2    0    0  0.24709454834E+02 -0.41507871295E+02 -0.10284925905E+02  0.10411988408E+03  0.91660842362E+02 0.  0.
          5    1    3    3  502    0 -0.58680570820E+02  0.27136768549E+02  0.18282472494E+03  0.19397624506E+03  0.47000000000E+01 0. -1.
         -5    1    4    4    0  503  0.56471339563E+02 -0.10109813787E+02 -0.13411057621E+02  0.59103020171E+02  0.47000000000E+01 0.  1.
          5    1    4    4  503    0 -0.31761884729E+02 -0.31398057507E+02  0.31261317163E+01  0.45016863910E+02  0.47000000000E+01 0. -1.
         -5    1    3    3    0  502  0.33971115986E+02  0.14371102746E+02  0.13710881217E+03  0.14206154191E+03  0.47000000000E+01 0.  1.
<mgrwt>
<rscale>  0 0.10340262E+03</rscale>
<asrwt>0</asrwt>
<pdfrwt beam="1">  1        3 0.57677405E-01 0.10361067E+03</pdfrwt>
<pdfrwt beam="2">  1       -3 0.10039159E-01 0.10361067E+03</pdfrwt>
<totfact> 0.48773667E+02</totfact>
</mgrwt>
</event>
<event>
 8    1  0.1893090E-003  0.9270095E+02  0.7546771E-02  0.1297028E+00
         -2   -1    0    0    0  501 -0.00000000000E+00  0.00000000000E+00  0.14983091826E+02  0.14983091826E+02  0.00000000000E+00 0.  1.
          2   -1    0    0  501    0  0.00000000000E+00 -0.00000000000E+00 -0.72287833870E+03  0.72287833870E+03  0.00000000000E+00 0. -1.
         23    2    1    2    0    0 -0.74412839473E+00  0.17788080591E+02 -0.52356130242E+03  0.53153046062E+03  0.89951229251E+02 0.  0.
         23    2    1    2    0    0  0.74412839473E+00 -0.17788080591E+02 -0.18433394446E+03  0.20633096991E+03  0.90975252262E+02 0.  0.
          5    1    3    3  502    0  0.12590933952E+02  0.52012333036E+02 -0.27150450329E+03  0.27676813348E+03  0.47000000000E+01 0. -1.
         -5    1    3    3    0  502 -0.13335062347E+02 -0.34224252445E+02 -0.25205679913E+03  0.25476232714E+03  0.47000000000E+01 0.  1.
          5    1    4    4  503    0 -0.54296158921E+01  0.25149515400E+02 -0.12397072522E+02  0.28944019429E+02  0.47000000000E+01 0. -1.
         -5    1    4    4    0  503  0.61737442869E+01 -0.42937595990E+02 -0.17193687194E+03  0.17738695048E+03  0.47000000000E+01 0.  1.
<mgrwt>
<rscale>  0 0.92448735E+02</rscale>
<asrwt>0</asrwt>
<pdfrwt beam="1">  1        2 0.11121205E+00 0.92700950E+02</pdfrwt>
<pdfrwt beam="2">  1       -2 0.23050912E-02 0.92700950E+02</pdfrwt>
<totfact> 0.23048881E+04</totfact>
</mgrwt>
</event>
<event>
 7    1  0.1893090E-003  0.1731226E+03  0.7546771E-02  0.1199818E+00
         -1   -1    0    0    0  501 -0.00000000000E+00  0.00000000000E+00  0.57909550114E+03  0.57909550114E+03  0.00000000000E+00 0.  1.
          1   -1    0    0  501    0  0.00000000000E+00 -0.00000000000E+00 -0.32236188803E+02  0.32236188803E+02  0.00000000000E+00 0. -1.
         23    2    1    2    0    0  0.29806421690E+02 -0.22393287500E+02  0.22677365901E+03  0.24742748597E+03  0.91674349155E+02 0.  0.
          5    1    3    3  502    0 -0.22193590650E+01  0.31453489758E+02  0.45357623819E+02  0.55440523186E+02  0.47000000000E+01 0. -1.
         -5    1    3    3    0  502  0.32025780755E+02 -0.53846777258E+02  0.18141603520E+03  0.19198696279E+03  0.47000000000E+01 0.  1.
          5    1    1    2  503    0 -0.41991597356E+02 -0.47368887614E+02  0.40142344960E+02  0.75103952101E+02  0.47000000000E+01 0. -1.
         -5    1    1    2    0  503  0.12185175666E+02  0.69762175114E+02  0.27994330836E+03  0.28880025187E+03  0.47000000000E+01 0.  1.
<mgrwt>
<rscale>  0 0.15053440E+03</rscale>
<asrwt>0</asrwt>
<pdfrwt beam="1">  1        1 0.49594141E-02 0.17312263E+03</pdfrwt>
<pdfrwt beam="2">  1       -1 0.89091608E-01 0.17312263E+03</pdfrwt>
<totfact> 0.21444681E+03</totfact>
</mgrwt>
</event>
<event>
 8    1  0.1893090E-003  0.1038364E+03  0.7546771E-02  0.1272885E+00
          1   -1    0    0  501    0  0.00000000000E+00  0.00000000000E+00  0.10935077961E+04  0.10935077961E+04  0.00000000000E+00 0. -1.
         -1   -1    0    0    0  501 -0.00000000000E+00 -0.00000000000E+00 -0.12094333667E+02  0.12094333667E+02  0.00000000000E+00 0.  1.
         23    2    1    2    0    0 -0.38249669372E+02 -0.30504078007E+02  0.78091999247E+03  0.78767395033E+03  0.90557613714E+02 0.  0.
         23    2    1    2    0    0  0.38249669372E+02  0.30504078007E+02  0.30049346996E+03  0.31792817944E+03  0.91588568115E+02 0.  0.
          5    1    4    4  502    0  0.12204197487E+02  0.61232693839E+02  0.19954779319E+03  0.20914061538E+03  0.47000000000E+01 0. -1.
         -5    1    4    4    0  502  0.26045471885E+02 -0.30728615832E+02  0.10094567676E+03  0.10878756406E+03  0.47000000000E+01 0.  1.
          5    1    3    3  503    0  0.74187397592E+01  0.26985885429E+02  0.17199668375E+03  0.17432218715E+03  0.47000000000E+01 0. -1.
         -5    1    3    3    0  503 -0.45668409131E+02 -0.57489963436E+02  0.60892330872E+03  0.61335176318E+03  0.47000000000E+01 0.  1.
<mgrwt>
<rscale>  0 0.10360862E+03</rscale>
<asrwt>0</asrwt>
<pdfrwt beam="1">  1        1 0.16823189E+00 0.10383642E+03</pdfrwt>
<pdfrwt beam="2">  1       -1 0.18606676E-02 0.10383642E+03</pdfrwt>
<totfact> 0.98872334E+03</totfact>
</mgrwt>
</event>
<event>
 8    1  0.1893090E-003  0.1568981E+03  0.7546771E-02  0.1193140E+00
         -2   -1    0    0    0  501 -0.00000000000E+00  0.00000000000E+00  0.29793631731E+03  0.29793631731E+03  0.00000000000E+00 0.  1.
          2   -1    0    0  501    0  0.00000000000E+00 -0.00000000000E+00 -0.81078056009E+02  0.81078056009E+02  0.00000000000E+00 0. -1.
         23    2    1    2    0    0 -0.40965782588E+02 -0.11728577125E+03  0.10448637888E+03  0.18850576458E+03  0.95827305220E+02 0.  0.
         23    2    1    2    0    0  0.40965782588E+02  0.11728577125E+03  0.11237188242E+03  0.19050860874E+03  0.90730053261E+02 0.  0.
          5    1    3    3  502    0 -0.25917482614E+02 -0.84537829926E+02  0.12278734122E+02  0.89393612217E+02  0.47000000000E+01 0. -1.
         -5    1    3    3    0  502 -0.15048299975E+02 -0.32747941325E+02  0.92207644760E+02  0.99112152359E+02  0.47000000000E+01 0.  1.
          5    1    4    4  503    0  0.11145092043E+01  0.11160871825E+03  0.69777048502E+02  0.13171436755E+03  0.47000000000E+01 0. -1.
         -5    1    4    4    0  503  0.39851273384E+02  0.56770529982E+01  0.42594833914E+02  0.58794241191E+02  0.47000000000E+01 0.  1.
<mgrwt>
<rscale>  0 0.15612740E+03</rscale>
<asrwt>0</asrwt>
<pdfrwt beam="1">  1        2 0.12473547E-01 0.15689812E+03</pdfrwt>
<pdfrwt beam="2">  1       -2 0.45836356E-01 0.15689812E+03</pdfrwt>
<totfact> 0.21668564E+03</totfact>
</mgrwt>
</event>
<event>
 8    1  0.1893090E-003  0.1103125E+03  0.7546771E-02  0.1260613E+00
          1   -1    0    0  501    0  0.00000000000E+00  0.00000000000E+00  0.35650312718E+03  0.35650312718E+03  0.00000000000E+00 0. -1.
         -1   -1    0    0    0  501 -0.00000000000E+00 -0.00000000000E+00 -0.70025277844E+02  0.70025277844E+02  0.00000000000E+00 0.  1.
         23    2    1    2    0    0  0.43952289320E+02 -0.44204362090E+02 -0.10736528434E+02  0.10950281517E+03  0.89385480492E+02 0.  0.
         23    2    1    2    0    0 -0.43952289320E+02  0.44204362090E+02  0.29721437777E+03  0.31702558986E+03  0.91011037274E+02 0.  0.
          5    1    4    4  502    0 -0.40840841432E+02 -0.16266690740E+02  0.17572616985E+03  0.18120252848E+03  0.47000000000E+01 0. -1.
         -5    1    4    4    0  502 -0.31114478874E+01  0.60471052831E+02  0.12148820792E+03  0.13582306138E+03  0.47000000000E+01 0.  1.
          5    1    3    3  503    0 -0.94523152166E+01  0.18270961472E+02  0.11763919769E+02  0.24158934256E+02  0.47000000000E+01 0. -1.
         -5    1    3    3    0  503  0.53404604536E+02 -0.62475323562E+02 -0.22500448203E+02  0.85343880912E+02  0.47000000000E+01 0.  1.
<mgrwt>
<rscale>  0 0.10997661E+03</rscale>
<asrwt>0</asrwt>
<pdfrwt beam="1">  1        1 0.54846634E-01 0.11031246E+03</pdfrwt>
<pdfrwt beam="2">  1       -1 0.10773120E-01 0.11031246E+03</pdfrwt>
<totfact> 0.36482645E+03</totfact>
</mgrwt>
</event>
<event>
 8    1  0.1893090E-003  0.1081872E+03  0.7546771E-02  0.1264090E+00
          2   -1    0    0  501    0  0.00000000000E+00  0.00000000000E+00  0.62588277510E+03  0.62588277510E+03  0.00000000000E+00 0. -1.
         -2   -1    0    0    0  501 -0.00000000000E+00 -0.00000000000E+00 -0.20412629461E+02  0.20412629461E+02  0.00000000000E+00 0.  1.
         23    2    1    2    0    0  0.17445570010E+02  0.53193901022E+02  0.20756471404E+03  0.23394457678E+03  0.92266003876E+02 0.  0.
         23    2    1    2    0    0 -0.17445570010E+02 -0.53193901022E+02  0.39790543159E+03  0.41235082777E+03  0.92577176763E+02 0.  0.
          5    1    3    3  502    0 -0.14171098809E+02  0.58214928263E+02  0.18494802803E+03  0.19446763480E+03  0.47000000000E+01 0. -1.
         -5    1    3    3    0  502  0.31616668819E+02 -0.50210272410E+01  0.22616686014E+02  0.39476941979E+02  0.47000000000E+01 0.  1.
          5    1    4    4  503    0  0.53552357942E+01  0.25107231893E+02  0.11229602034E+03  0.11528893194E+03  0.47000000000E+01 0. -1.
         -5    1    4    4    0  503 -0.22800805804E+02 -0.78301132915E+02  0.28560941125E+03  0.29706189583E+03  0.47000000000E+01 0.  1.
<mgrwt>
<rscale>  0 0.10812061E+03</rscale>
<asrwt>0</asrwt>
<pdfrwt beam="1">  1        2 0.96289643E-01 0.10818721E+03</pdfrwt>
<pdfrwt beam="2">  1       -2 0.31404050E-02 0.10818721E+03</pdfrwt>
<totfact> 0.17625935E+04</totfact>
</mgrwt>
</event>
<event>
 8    1  0.1893090E-003  0.1249083E+03  0.7546771E-02  0.1235909E+00
          2   -1    0    0  501    0  0.00000000000E+00  0.00000000000E+00  0.75689003197E+03  0.75689003197E+03  0.00000000000E+00 0. -1.
         -2   -1    0    0    0  501 -0.00000000000E+00 -0.00000000000E+00 -0.21257305932E+02  0.21257305932E+02  0.00000000000E+00 0.  1.
         23    2    1    2    0    0 -0.69313194750E+02 -0.47710983824E+02  0.28374621483E+03  0.30931527512E+03  0.89907552786E+02 0.  0.
         23    2    1    2    0    0  0.69313194750E+02  0.47710983824E+02  0.45188651120E+03  0.46883206278E+03  0.92311576406E+02 0.  0.
          5    1    3    3  502    0  0.32377331500E+01 -0.23425350173E+02  0.17274691886E+03  0.17442138035E+03  0.47000000000E+01 0. -1.
         -5    1    4    4    0  503  0.26287146077E+02 -0.20806288785E+02  0.62279936249E+02  0.70885796611E+02  0.47000000000E+01 0.  1.
          5    1    4    4  503    0  0.43026048672E+02  0.68517272609E+02  0.38960657495E+03  0.39794626617E+03  0.47000000000E+01 0. -1.
         -5    1    3    3    0  502 -0.72550927899E+02 -0.24285633651E+02  0.11099929597E+03  0.13489389477E+03  0.47000000000E+01 0.  1.
<mgrwt>
<rscale>  0 0.12446444E+03</rscale>
<asrwt>0</asrwt>
<pdfrwt beam="1">  1        2 0.11644460E+00 0.12490830E+03</pdfrwt>
<pdfrwt beam="2">  1       -2 0.32703553E-02 0.12490830E+03</pdfrwt>
<totfact> 0.13436586E+04</totfact>
</mgrwt>
</event>
<event>
 8    1  0.1893090E-003  0.1235853E+03  0.7546771E-02  0.1237544E+00
         -2   -1    0    0    0  501 -0.00000000000E+00  0.00000000000E+00  0.41174865819E+02  0.41174865819E+02  0.00000000000E+00 0.  1.
          2   -1    0    0  501    0  0.00000000000E+00 -0.00000000000E+00 -0.51380902695E+03  0.51380902695E+03  0.00000000000E+00 0. -1.
         23    2    1    2    0    0 -0.77560975373E+02 -0.26161217929E+02 -0.89468815754E+02  0.15257131041E+03  0.92591692618E+02 0.  0.
         23    2    1    2    0    0  0.77560975373E+02  0.26161217929E+02 -0.38316534537E+03  0.40241258236E+03  0.91761050141E+02 0.  0.
          5    1    3    3  502    0 -0.24435351691E+02 -0.16943607174E+01 -0.90511116435E+02  0.93884553942E+02  0.47000000000E+01 0. -1.
         -5    1    4    4    0  503  0.16680234632E+02  0.47526910794E+02 -0.10142994926E+03  0.11334532228E+03  0.47000000000E+01 0.  1.
          5    1    4    4  503    0  0.60880740742E+02 -0.21365692864E+02 -0.28173539611E+03  0.28906726008E+03  0.47000000000E+01 0. -1.
         -5    1    3    3    0  502 -0.53125623682E+02 -0.24466857212E+02  0.10423006814E+01  0.58686756463E+02  0.47000000000E+01 0.  1.
<mgrwt>
<rscale>  0 0.12342977E+03</rscale>
<asrwt>0</asrwt>
<pdfrwt beam="1">  1        2 0.79047537E-01 0.12358534E+03</pdfrwt>
<pdfrwt beam="2">  1       -2 0.63345952E-02 0.12358534E+03</pdfrwt>
<totfact> 0.78115477E+03</totfact>
</mgrwt>
</event>
<event>
 8    1  0.1893090E-003  0.1407313E+03  0.7546771E-02  0.1218389E+00
         -2   -1    0    0    0  501 -0.00000000000E+00  0.00000000000E+00  0.95189056430E+02  0.95189056430E+02  0.00000000000E+00 0.  1.
          2   -1    0    0  501    0  0.00000000000E+00 -0.00000000000E+00 -0.21879260429E+03  0.21879260429E+03  0.00000000000E+00 0. -1.
         23    2    1    2    0    0 -0.84471648184E+02 -0.43294793180E+01 -0.12775141611E+03  0.19006766761E+03  0.11247706527E+03 0.  0.
         23    2    1    2    0    0  0.84471648184E+02  0.43294793180E+01  0.41478682558E+01  0.12391399311E+03  0.90461423486E+02 0.  0.
          5    1    3    3  502    0 -0.10550059492E+03 -0.14495148555E+02 -0.69814252646E+02  0.12742293645E+03  0.47000000000E+01 0. -1.
         -5    1    4    4    0  503  0.55718201225E+02 -0.33292431604E+02  0.27811467799E+02  0.70770556667E+02  0.47000000000E+01 0.  1.
          5    1    4    4  503    0  0.28753446959E+02  0.37621910922E+02 -0.23663599543E+02  0.53143436442E+02  0.47000000000E+01 0. -1.
         -5    1    3    3    0  502  0.21028946734E+02  0.10165669237E+02 -0.57937163465E+02  0.62644731161E+02  0.47000000000E+01 0.  1.
<mgrwt>
<rscale>  0 0.13630513E+03</rscale>
<asrwt>0</asrwt>
<pdfrwt beam="1">  1        2 0.33660400E-01 0.14073128E+03</pdfrwt>
<pdfrwt beam="2">  1       -2 0.14644470E-01 0.14073128E+03</pdfrwt>
<totfact> 0.52685742E+03</totfact>
</mgrwt>
</event>
<event>
 8    1  0.1893090E-003  0.1025409E+03  0.7546771E-02  0.1275542E+00
         -2   -1    0    0    0  501 -0.00000000000E+00  0.00000000000E+00  0.44208243561E+02  0.44208243561E+02  0.00000000000E+00 0.  1.
          2   -1    0    0  501    0  0.00000000000E+00 -0.00000000000E+00 -0.40729868209E+03  0.40729868209E+03  0.00000000000E+00 0. -1.
         23    2    1    2    0    0  0.43818897702E+02 -0.17172720384E+02 -0.32762532537E+03  0.34300622018E+03  0.89999528537E+02 0.  0.
         23    2    1    2    0    0 -0.43818897702E+02  0.17172720384E+02 -0.35465113150E+02  0.10850070546E+03  0.91102309049E+02 0.  0.
          5    1    3    3  502    0  0.62839185893E+02 -0.36508796253E+02 -0.21240046343E+03  0.22453886602E+03  0.47000000000E+01 0. -1.
         -5    1    3    3    0  502 -0.19020288191E+02  0.19336075869E+02 -0.11522486194E+03  0.11846735416E+03  0.47000000000E+01 0.  1.
          5    1    4    4  503    0 -0.42763104114E+02 -0.88660158692E+01 -0.58670456250E+02  0.73291211939E+02  0.47000000000E+01 0. -1.
         -5    1    4    4    0  503 -0.10557935876E+01  0.26038736254E+02  0.23205343101E+02  0.35209493524E+02  0.47000000000E+01 0.  1.
<mgrwt>
<rscale>  0 0.10229536E+03</rscale>
<asrwt>0</asrwt>
<pdfrwt beam="1">  1        2 0.62661335E-01 0.10254086E+03</pdfrwt>
<pdfrwt beam="2">  1       -2 0.68012683E-02 0.10254086E+03</pdfrwt>
<totfact> 0.88897257E+03</totfact>
</mgrwt>
</event>
<event>
 8    1  0.1893090E-003  0.1190299E+03  0.7546771E-02  0.1244887E+00
         -2   -1    0    0    0  501 -0.00000000000E+00  0.00000000000E+00  0.18818613786E+03  0.18818613786E+03  0.00000000000E+00 0.  1.
          2   -1    0    0  501    0  0.00000000000E+00 -0.00000000000E+00 -0.14146220206E+03  0.14146220206E+03  0.00000000000E+00 0. -1.
         23    2    1    2    0    0 -0.70392389524E+02 -0.26639065008E+02  0.13630369130E+03  0.18067638017E+03  0.91654404165E+02 0.  0.
         23    2    1    2    0    0  0.70392389524E+02  0.26639065008E+02 -0.89579755497E+02  0.14897195974E+03  0.92213794562E+02 0.  0.
          5    1    3    3  502    0 -0.44329522879E+02  0.30351255196E+02  0.47368657667E+02  0.71778722612E+02  0.47000000000E+01 0. -1.
         -5    1    4    4    0  503  0.31891275096E+02 -0.15857327182E+00  0.14017722640E+02  0.35152028686E+02  0.47000000000E+01 0.  1.
          5    1    4    4  503    0  0.38501114428E+02  0.26797638280E+02 -0.10359747814E+03  0.11381993106E+03  0.47000000000E+01 0. -1.
         -5    1    3    3    0  502 -0.26062866645E+02 -0.56990320205E+02  0.88935033635E+02  0.10889765756E+03  0.47000000000E+01 0.  1.
<mgrwt>
<rscale>  0 0.11892152E+03</rscale>
<asrwt>0</asrwt>
<pdfrwt beam="1">  1        2 0.21763416E-01 0.11902988E+03</pdfrwt>
<pdfrwt beam="2">  1       -2 0.28951714E-01 0.11902988E+03</pdfrwt>
<totfact> 0.26388847E+03</totfact>
</mgrwt>
</event>
<event>
 7    1  0.1893090E-003  0.1632911E+03  0.7546771E-02  0.1208011E+00
          4   -1    0    0  501    0  0.00000000000E+00  0.00000000000E+00  0.69037297119E+03  0.69037297119E+03  0.00000000000E+00 0. -1.
         -4   -1    0    0    0  501 -0.00000000000E+00 -0.00000000000E+00 -0.29469728845E+02  0.29469728845E+02  0.00000000000E+00 0.  1.
         23    2    1    2    0    0  0.88744534927E+01 -0.37159766972E+02  0.12348252701E+03  0.15816217447E+03  0.91146775864E+02 0.  0.
          5    1    3    3  502    0  0.20813511629E+02  0.23570079183E+02  0.20215373901E+02  0.37676282207E+02  0.47000000000E+01 0. -1.
         -5    1    3    3    0  502 -0.11939058136E+02 -0.60729846155E+02  0.10326715311E+03  0.12048589227E+03  0.47000000000E+01 0.  1.
          5    1    1    2  503    0  0.54404936978E+02  0.70827629562E+02  0.34114252326E+03  0.35267089681E+03  0.47000000000E+01 0. -1.
         -5    1    1    2    0  503 -0.63279390471E+02 -0.33667862590E+02  0.19627819207E+03  0.20900962876E+03  0.47000000000E+01 0.  1.
<mgrwt>
<rscale>  0 0.14402701E+03</rscale>
<asrwt>0</asrwt>
<pdfrwt beam="1">  1        4 0.10621121E+00 0.16329111E+03</pdfrwt>
<pdfrwt beam="2">  1       -4 0.45338050E-02 0.16329111E+03</pdfrwt>
<totfact> 0.35762306E+02</totfact>
</mgrwt>
</event>
<event>
 8    1  0.1893090E-003  0.1120805E+03  0.7546771E-02  0.1256895E+00
         -2   -1    0    0    0  501 -0.00000000000E+00  0.00000000000E+00  0.67023677770E+02  0.67023677770E+02  0.00000000000E+00 0.  1.
          2   -1    0    0  501    0  0.00000000000E+00 -0.00000000000E+00 -0.26250648158E+03  0.26250648158E+03  0.00000000000E+00 0. -1.
         23    2    1    2    0    0  0.18347804486E+02  0.61311681628E+02 -0.92529329320E+01  0.11217422184E+03  0.91660651559E+02 0.  0.
         23    2    1    2    0    0 -0.18347804486E+02 -0.61311681628E+02 -0.18622987088E+03  0.21735593751E+03  0.92012360742E+02 0.  0.
          5    1    4    4  502    0 -0.61435938527E+01 -0.83527211133E+02 -0.12115246374E+03  0.14735857021E+03  0.47000000000E+01 0. -1.
         -5    1    3    3    0  503  0.25039190208E+02  0.28338054598E+02  0.38106130821E+02  0.53890384957E+02  0.47000000000E+01 0.  1.
          5    1    3    3  503    0 -0.66913857222E+01  0.32973627030E+02 -0.47359063753E+02  0.58283836884E+02  0.47000000000E+01 0. -1.
         -5    1    4    4    0  502 -0.12204210633E+02  0.22215529505E+02 -0.65077407141E+02  0.69997367298E+02  0.47000000000E+01 0.  1.
<mgrwt>
<rscale>  0 0.11200829E+03</rscale>
<asrwt>0</asrwt>
<pdfrwt beam="1">  1        2 0.40385613E-01 0.11208050E+03</pdfrwt>
<pdfrwt beam="2">  1       -2 0.10311335E-01 0.11208050E+03</pdfrwt>
<totfact> 0.74866107E+03</totfact>
</mgrwt>
</event>
<event>
 8    1  0.1893090E-003  0.1896370E+03  0.7546771E-02  0.1158906E+00
          1   -1    0    0  501    0  0.00000000000E+00  0.00000000000E+00  0.16547350587E+03  0.16547350587E+03  0.00000000000E+00 0. -1.
         -1   -1    0    0    0  501 -0.00000000000E+00 -0.00000000000E+00 -0.78755032544E+03  0.78755032544E+03  0.00000000000E+00 0.  1.
         23    2    1    2    0    0 -0.46449249197E+02  0.15919889931E+03 -0.71683363623E+03  0.74149352620E+03  0.91980242806E+02 0.  0.
         23    2    1    2    0    0  0.46449249197E+02 -0.15919889931E+03  0.94756816664E+02  0.21153030511E+03  0.90908709050E+02 0.  0.
          5    1    3    3  502    0 -0.27673176627E+02 -0.79152546279E+00 -0.90296514348E+02  0.94562052223E+02  0.47000000000E+01 0. -1.
         -5    1    4    4    0  503 -0.33808971514E+01 -0.65627537275E+02 -0.47553608949E+01  0.66053823293E+02  0.47000000000E+01 0.  1.
          5    1    4    4  503    0  0.49830146348E+02 -0.93571362036E+02  0.99512177559E+02  0.14547648181E+03  0.47000000000E+01 0. -1.
         -5    1    3    3    0  502 -0.18776072569E+02  0.15999042477E+03 -0.62653712188E+03  0.64693147397E+03  0.47000000000E+01 0.  1.
<mgrwt>
<rscale>  0 0.18950750E+03</rscale>
<asrwt>0</asrwt>
<pdfrwt beam="1">  1        1 0.25457462E-01 0.18963699E+03</pdfrwt>
<pdfrwt beam="2">  1       -1 0.12116159E+00 0.18963699E+03</pdfrwt>
<totfact> 0.12307659E+02</totfact>
</mgrwt>
</event>
<event>
 8    1  0.1893090E-003  0.1129426E+03  0.7546771E-02  0.1255226E+00
          2   -1    0    0  501    0  0.00000000000E+00  0.00000000000E+00  0.97796193673E+03  0.97796193673E+03  0.00000000000E+00 0. -1.
         -2   -1    0    0    0  501 -0.00000000000E+00 -0.00000000000E+00 -0.18374118773E+02  0.18374118773E+02  0.00000000000E+00 0.  1.
         23    2    1    2    0    0 -0.93564477705E+01  0.66675256728E+02  0.21143759991E+03  0.23971210222E+03  0.90680209086E+02 0.  0.
         23    2    1    2    0    0  0.93564477705E+01 -0.66675256728E+02  0.74815021805E+03  0.75662395328E+03  0.90652771311E+02 0.  0.
          5    1    4    4  502    0  0.32012388786E+02 -0.72202905265E+02  0.67687175247E+03  0.68148038259E+03  0.47000000000E+01 0. -1.
         -5    1    3    3    0  503 -0.41846558923E+02  0.67107054722E+02  0.16246975233E+03  0.18075674734E+03  0.47000000000E+01 0.  1.
          5    1    3    3  503    0  0.32490111153E+02 -0.43179799381E+00  0.48967847588E+02  0.58955354885E+02  0.47000000000E+01 0. -1.
         -5    1    4    4    0  502 -0.22655941016E+02  0.55276485371E+01  0.71278465577E+02  0.75143570694E+02  0.47000000000E+01 0.  1.
<mgrwt>
<rscale>  0 0.11293710E+03</rscale>
<asrwt>0</asrwt>
<pdfrwt beam="1">  1        2 0.15045564E+00 0.11294261E+03</pdfrwt>
<pdfrwt beam="2">  1       -2 0.28267883E-02 0.11294261E+03</pdfrwt>
<totfact> 0.11914041E+04</totfact>
</mgrwt>
</event>
<event>
 8    1  0.1893090E-003  0.1210528E+03  0.7546771E-02  0.1241729E+00
          2   -1    0    0  501    0  0.00000000000E+00  0.00000000000E+00  0.85949744472E+03  0.85949744472E+03  0.00000000000E+00 0. -1.
         -2   -1    0    0    0  501 -0.00000000000E+00 -0.00000000000E+00 -0.23037005895E+02  0.23037005895E+02  0.00000000000E+00 0.  1.
         23    2    1    2    0    0 -0.18997992181E+02  0.77314982433E+02  0.64438452167E+03  0.65549491851E+03  0.90020254414E+02 0.  0.
         23    2    1    2    0    0  0.18997992181E+02 -0.77314982433E+02  0.19207591715E+03  0.22703953211E+03  0.91188052803E+02 0.  0.
          5    1    3    3  502    0  0.14136193531E+02  0.81498956145E+02  0.52260980928E+03  0.52913610213E+03  0.47000000000E+01 0. -1.
         -5    1    3    3    0  502 -0.33134185712E+02 -0.41839737123E+01  0.12177471239E+03  0.12635881638E+03  0.47000000000E+01 0.  1.
          5    1    4    4  503    0  0.43426472544E+02 -0.14727664193E+02  0.11922706760E+03  0.12782779924E+03  0.47000000000E+01 0. -1.
         -5    1    4    4    0  503 -0.24428480362E+02 -0.62587318240E+02  0.72848849553E+02  0.99211732867E+02  0.47000000000E+01 0.  1.
<mgrwt>
<rscale>  0 0.12083294E+03</rscale>
<asrwt>0</asrwt>
<pdfrwt beam="1">  1        2 0.13223035E+00 0.12105284E+03</pdfrwt>
<pdfrwt beam="2">  1       -2 0.35441554E-02 0.12105284E+03</pdfrwt>
<totfact> 0.10170236E+04</totfact>
</mgrwt>
</event>
<event>
 8    1  0.1893090E-003  0.1039256E+03  0.7546771E-02  0.1272273E+00
         -1   -1    0    0    0  501 -0.00000000000E+00  0.00000000000E+00  0.17610298491E+03  0.17610298491E+03  0.00000000000E+00 0.  1.
          1   -1    0    0  501    0  0.00000000000E+00 -0.00000000000E+00 -0.69585710395E+02  0.69585710395E+02  0.00000000000E+00 0. -1.
         23    2    1    2    0    0 -0.21239387567E+02 -0.40739092994E+02  0.95646092391E+02  0.14123987565E+03  0.93218786740E+02 0.  0.
         23    2    1    2    0    0  0.21239387567E+02  0.40739092994E+02  0.10871182127E+02  0.10444881966E+03  0.93169673420E+02 0.  0.
          5    1    3    3  502    0 -0.24384188256E+02  0.64284816017E+01 -0.82932349934E+01  0.26958890171E+02  0.47000000000E+01 0.  1.
         -5    1    4    4    0  503 -0.20653529766E+02  0.15938657396E+00  0.35197800877E+02  0.41080030215E+02  0.47000000000E+01 0.  1.
          5    1    4    4  503    0  0.41892917333E+02  0.40579706420E+02 -0.24326618750E+02  0.63368789444E+02  0.47000000000E+01 0. -1.
         -5    1    3    3    0  502  0.31448006886E+01 -0.47167574596E+02  0.10393932738E+03  0.11428098548E+03  0.47000000000E+01 0. -1.
<mgrwt>
<rscale>  0 0.10391457E+03</rscale>
<asrwt>0</asrwt>
<pdfrwt beam="1">  1        1 0.10705494E-01 0.10392559E+03</pdfrwt>
<pdfrwt beam="2">  1       -1 0.27092767E-01 0.10392559E+03</pdfrwt>
<totfact> 0.66047860E+03</totfact>
</mgrwt>
</event>
<event>
 8    1  0.1893090E-003  0.9566337E+02  0.7546771E-02  0.1291888E+00
         -2   -1    0    0    0  501 -0.00000000000E+00  0.00000000000E+00  0.29880881623E+02  0.29880881623E+02  0.00000000000E+00 0.  1.
          2   -1    0    0  501    0  0.00000000000E+00 -0.00000000000E+00 -0.29682516844E+03  0.29682516844E+03  0.00000000000E+00 0. -1.
         23    2    1    2    0    0  0.48377495692E+01 -0.27277767967E+02 -0.11495712881E+03  0.14711880922E+03  0.87528978710E+02 0.  0.
         23    2    1    2    0    0 -0.48377495692E+01  0.27277767967E+02 -0.15198715800E+03  0.17958724084E+03  0.91564187489E+02 0.  0.
          5    1    3    3  502    0 -0.32820027517E+02 -0.30971568893E+02 -0.31118021593E+02  0.55016484382E+02  0.47000000000E+01 0. -1.
         -5    1    4    4    0  503 -0.30671611540E+02  0.30868212790E+02 -0.26140950035E+02  0.50980717767E+02  0.47000000000E+01 0.  1.
          5    1    4    4  503    0  0.25833861971E+02 -0.35904448235E+01 -0.12584620797E+03  0.12860652308E+03  0.47000000000E+01 0. -1.
         -5    1    3    3    0  502  0.37657777086E+02  0.36938009261E+01 -0.83839107220E+02  0.92102324834E+02  0.47000000000E+01 0.  1.
<mgrwt>
<rscale>  0 0.94684742E+02</rscale>
<asrwt>0</asrwt>
<pdfrwt beam="1">  1        2 0.45665410E-01 0.95663373E+02</pdfrwt>
<pdfrwt beam="2">  1       -2 0.45970587E-02 0.95663373E+02</pdfrwt>
<totfact> 0.22153118E+04</totfact>
</mgrwt>
</event>
<event>
 8    1  0.1893090E-003  0.1019325E+03  0.7546771E-02  0.1278583E+00
         -1   -1    0    0    0  501 -0.00000000000E+00  0.00000000000E+00  0.64522308883E+02  0.64522308883E+02  0.00000000000E+00 0.  1.
          1   -1    0    0  501    0  0.00000000000E+00 -0.00000000000E+00 -0.23436104794E+03  0.23436104794E+03  0.00000000000E+00 0. -1.
         23    2    1    2    0    0  0.72132652063E+01  0.43409821846E+02 -0.17108550615E+03  0.19694321822E+03  0.87062833390E+02 0.  0.
         23    2    1    2    0    0 -0.72132652063E+01 -0.43409821846E+02  0.12467671020E+01  0.10194013860E+03  0.91944513716E+02 0.  0.
          5    1    3    3  502    0 -0.22778643383E+02  0.58816104415E+02 -0.11794669152E+03  0.13383464714E+03  0.47000000000E+01 0. -1.
         -5    1    3    3    0  502  0.29991908589E+02 -0.15406282569E+02 -0.53138814630E+02  0.63108571079E+02  0.47000000000E+01 0.  1.
          5    1    4    4  503    0 -0.48870625573E+02 -0.16084791697E+02 -0.27727252478E+01  0.51738153940E+02  0.47000000000E+01 0. -1.
         -5    1    4    4    0  503  0.41657360366E+02 -0.27325030149E+02  0.40194923498E+01  0.50201984663E+02  0.47000000000E+01 0.  1.
<mgrwt>
<rscale>  0 0.10081927E+03</rscale>
<asrwt>0</asrwt>
<pdfrwt beam="1">  1        1 0.36055546E-01 0.10193251E+03</pdfrwt>
<pdfrwt beam="2">  1       -1 0.99265091E-02 0.10193251E+03</pdfrwt>
<totfact> 0.68824020E+03</totfact>
</mgrwt>
</event>
<event>
 8    1  0.1893090E-003  0.9757364E+02  0.7546771E-02  0.1289472E+00
         -2   -1    0    0    0  501 -0.00000000000E+00  0.00000000000E+00  0.74914553037E+02  0.74914553037E+02  0.00000000000E+00 0.  1.
          2   -1    0    0  501    0  0.00000000000E+00 -0.00000000000E+00 -0.18619758281E+03  0.18619758281E+03  0.00000000000E+00 0. -1.
         23    2    1    2    0    0  0.34526477068E+02 -0.14972958060E+01  0.24619305705E+02  0.93809832344E+02  0.83665135616E+02 0.  0.
         23    2    1    2    0    0 -0.34526477068E+02  0.14972958060E+01 -0.13590233548E+03  0.16730230351E+03  0.91248542211E+02 0.  0.
          5    1    3    3  502    0  0.36559194569E+01  0.38362188429E+02  0.36078544036E+01  0.38988842783E+02  0.47000000000E+01 0. -1.
         -5    1    4    4    0  503  0.20106888379E+02 -0.27899344068E+02 -0.39698769568E+02  0.52732747557E+02  0.47000000000E+01 0.  1.
          5    1    4    4  503    0 -0.54633365446E+02  0.29396639874E+02 -0.96203565913E+02  0.11456955595E+03  0.47000000000E+01 0. -1.
         -5    1    3    3    0  502  0.30870557611E+02 -0.39859484235E+02  0.21011451302E+02  0.54820989561E+02  0.47000000000E+01 0.  1.
<mgrwt>
<rscale>  0 0.95760751E+02</rscale>
<asrwt>0</asrwt>
<pdfrwt beam="1">  1        2 0.28645781E-01 0.97573644E+02</pdfrwt>
<pdfrwt beam="2">  1       -2 0.11525316E-01 0.97573644E+02</pdfrwt>
<totfact> 0.89599839E+03</totfact>
</mgrwt>
</event>
<event>
 8    1  0.1893090E-003  0.1245305E+03  0.7546771E-02  0.1239048E+00
         -1   -1    0    0    0  501 -0.00000000000E+00  0.00000000000E+00  0.22212609158E+03  0.22212609158E+03  0.00000000000E+00 0.  1.
          1   -1    0    0  501    0  0.00000000000E+00 -0.00000000000E+00 -0.83063401685E+02  0.83063401685E+02  0.00000000000E+00 0. -1.
         23    2    1    2    0    0 -0.49773450764E+02  0.68030065447E+02 -0.25802874259E+01  0.11658787663E+03  0.80502104867E+02 0.  0.
         23    2    1    2    0    0  0.49773450764E+02 -0.68030065447E+02  0.14164297732E+03  0.18860161663E+03  0.91664336399E+02 0.  0.
          5    1    3    3  502    0 -0.22203565011E+02  0.47280783457E+00 -0.30758783469E+02  0.38228452845E+02  0.47000000000E+01 0. -1.
         -5    1    3    3    0  502 -0.27569885752E+02  0.67557257613E+02  0.28178496043E+02  0.78359423784E+02  0.47000000000E+01 0.  1.
          5    1    4    4  503    0 -0.15300963058E+02 -0.45547142858E+02  0.28466836514E+02  0.56045628501E+02  0.47000000000E+01 0. -1.
         -5    1    4    4    0  503  0.65074413821E+02 -0.22482922590E+02  0.11317614080E+03  0.13255598813E+03  0.47000000000E+01 0.  1.
<mgrwt>
<rscale>  0 0.12248798E+03</rscale>
<asrwt>0</asrwt>
<pdfrwt beam="1">  1        1 0.12778985E-01 0.12453047E+03</pdfrwt>
<pdfrwt beam="2">  1       -1 0.34173245E-01 0.12453047E+03</pdfrwt>
<totfact> 0.35959123E+03</totfact>
</mgrwt>
</event>
<event>
 8    1  0.1893090E-003  0.1580796E+03  0.7546771E-02  0.1194968E+00
         -1   -1    0    0    0  501 -0.00000000000E+00  0.00000000000E+00  0.40578701380E+02  0.40578701380E+02  0.00000000000E+00 0.  1.
          1   -1    0    0  501    0  0.00000000000E+00 -0.00000000000E+00 -0.61319257326E+03  0.61319257326E+03  0.00000000000E+00 0. -1.
         23    2    1    2    0    0  0.10539205902E+03  0.25032126442E+02 -0.18203184075E+03  0.23241217876E+03  0.95633343210E+02 0.  0.
         23    2    1    2    0    0 -0.10539205902E+03 -0.25032126442E+02 -0.39058203113E+03  0.42135909588E+03  0.11513067001E+03 0.  0.
          5    1    4    4  502    0 -0.89672174697E+02 -0.25278128474E+01 -0.38169770365E+03  0.39212589269E+03  0.47000000000E+01 0. -1.
         -5    1    3    3    0  503  0.41613799556E+02 -0.36247352955E+02 -0.79963891746E+02  0.97272261683E+02  0.47000000000E+01 0.  1.
          5    1    3    3  503    0  0.63778259460E+02  0.61279479397E+02 -0.10206794900E+03  0.13513991708E+03  0.47000000000E+01 0. -1.
         -5    1    4    4    0  502 -0.15719884320E+02 -0.22504313595E+02 -0.88843274852E+01  0.29233203182E+02  0.47000000000E+01 0.  1.
<mgrwt>
<rscale>  0 0.15456913E+03</rscale>
<asrwt>0</asrwt>
<pdfrwt beam="1">  1        1 0.94337311E-01 0.15807961E+03</pdfrwt>
<pdfrwt beam="2">  1       -1 0.62428777E-02 0.15807961E+03</pdfrwt>
<totfact> 0.41921238E+03</totfact>
</mgrwt>
</event>
<event>
 8    1  0.1893090E-003  0.1083892E+03  0.7546771E-02  0.1264404E+00
          1   -1    0    0  501    0  0.00000000000E+00  0.00000000000E+00  0.25300809904E+03  0.25300809904E+03  0.00000000000E+00 0. -1.
         -1   -1    0    0    0  501 -0.00000000000E+00 -0.00000000000E+00 -0.61306264379E+02  0.61306264379E+02  0.00000000000E+00 0.  1.
         23    2    1    2    0    0  0.43741699059E+02 -0.41920912630E+02  0.17571900514E+03  0.20645914638E+03  0.89874975416E+02 0.  0.
         23    2    1    2    0    0 -0.43741699059E+02  0.41920912630E+02  0.15982829527E+02  0.10785521704E+03  0.87787230568E+02 0.  0.
          5    1    4    4  502    0 -0.31001546629E+02  0.66123671059E+02  0.26990154477E+02  0.77999962861E+02  0.47000000000E+01 0. -1.
         -5    1    3    3    0  503  0.45532139328E+02 -0.65728008616E+02  0.15511892388E+03  0.17457753972E+03  0.47000000000E+01 0.  1.
          5    1    3    3  503    0 -0.17904402690E+01  0.23807095986E+02  0.20600081259E+02  0.31881606665E+02  0.47000000000E+01 0. -1.
         -5    1    4    4    0  502 -0.12740152430E+02 -0.24202758429E+02 -0.11007324951E+02  0.29855254179E+02  0.47000000000E+01 0.  1.
<mgrwt>
<rscale>  0 0.10795538E+03</rscale>
<asrwt>0</asrwt>
<pdfrwt beam="1">  1        1 0.38924322E-01 0.10838916E+03</pdfrwt>
<pdfrwt beam="2">  1       -1 0.94317331E-02 0.10838916E+03</pdfrwt>
<totfact> 0.68004806E+03</totfact>
</mgrwt>
</event>
<event>
 8    1  0.1893090E-003  0.3221374E+03  0.7546771E-02  0.1075513E+00
         -1   -1    0    0    0  501 -0.00000000000E+00  0.00000000000E+00  0.87694006934E+03  0.87694006934E+03  0.00000000000E+00 0.  1.
          1   -1    0    0  501    0  0.00000000000E+00 -0.00000000000E+00 -0.31618143663E+03  0.31618143663E+03  0.00000000000E+00 0. -1.
         23    2    1    2    0    0  0.28840964273E+03 -0.84344407297E+02 -0.19585656871E+03  0.37078393879E+03  0.93951225088E+02 0.  0.
         23    2    1    2    0    0 -0.28840964273E+03  0.84344407297E+02  0.75661520143E+03  0.82233756718E+03  0.11609655591E+03 0.  0.
          5    1    4    4  502    0 -0.25845123198E+02  0.46244267996E+02  0.85817898528E+02  0.10096189590E+03  0.47000000000E+01 0. -1.
         -5    1    4    4    0  502 -0.26256451953E+03  0.38100139301E+02  0.67079730290E+03  0.72137567128E+03  0.47000000000E+01 0.  1.
          5    1    3    3  503    0  0.31910516869E+02 -0.25165979373E+02  0.27382340542E+01  0.41002384448E+02  0.47000000000E+01 0.  1.
         -5    1    3    3    0  503  0.25649912586E+03 -0.59178427924E+02 -0.19859480277E+03  0.32978155435E+03  0.47000000000E+01 0. -1.
<mgrwt>
<rscale>  0 0.32029602E+03</rscale>
<asrwt>0</asrwt>
<pdfrwt beam="1">  1        1 0.48643298E-01 0.32213741E+03</pdfrwt>
<pdfrwt beam="2">  1       -1 0.13491386E+00 0.32213741E+03</pdfrwt>
<totfact> 0.40712685E+01</totfact>
</mgrwt>
</event>
<event>
 8    1  0.1893090E-003  0.1017591E+03  0.7546771E-02  0.1280042E+00
          2   -1    0    0  501    0  0.00000000000E+00  0.00000000000E+00  0.24421193151E+03  0.24421193151E+03  0.00000000000E+00 0. -1.
         -2   -1    0    0    0  501 -0.00000000000E+00 -0.00000000000E+00 -0.77821281649E+02  0.77821281649E+02  0.00000000000E+00 0.  1.
         23    2    1    2    0    0 -0.32046685835E+02  0.20825213839E+00 -0.27974032269E+02  0.10553415848E+03  0.96580943682E+02 0.  0.
         23    2    1    2    0    0  0.32046685835E+02 -0.20825213839E+00  0.19436468213E+03  0.21649905468E+03  0.89817468101E+02 0.  0.
          5    1    4    4  502    0  0.40953175241E+02  0.32893378646E+02  0.15678577019E+03  0.16541766730E+03  0.47000000000E+01 0. -1.
         -5    1    3    3    0  503 -0.45848581421E+02  0.23748048329E+02 -0.48555266735E+02  0.71033556475E+02  0.47000000000E+01 0.  1.
          5    1    3    3  503    0  0.13801895586E+02 -0.23539796191E+02  0.20581234466E+02  0.34500602004E+02  0.47000000000E+01 0. -1.
         -5    1    4    4    0  502 -0.89064894061E+01 -0.33101630784E+02  0.37578911941E+02  0.51081387381E+02  0.47000000000E+01 0.  1.
<mgrwt>
<rscale>  0 0.10012108E+03</rscale>
<asrwt>0</asrwt>
<pdfrwt beam="1">  1        2 0.37571066E-01 0.10175909E+03</pdfrwt>
<pdfrwt beam="2">  1       -2 0.11972505E-01 0.10175909E+03</pdfrwt>
<totfact> 0.63400556E+03</totfact>
</mgrwt>
</event>
<event>
 8    1  0.1893090E-003  0.1097490E+03  0.7546771E-02  0.1265494E+00
          3   -1    0    0  501    0  0.00000000000E+00  0.00000000000E+00  0.72753155304E+02  0.72753155304E+02  0.00000000000E+00 0. -1.
         -3   -1    0    0    0  501 -0.00000000000E+00 -0.00000000000E+00 -0.24929538301E+03  0.24929538301E+03  0.00000000000E+00 0.  1.
         23    2    1    2    0    0 -0.42403810435E+02  0.13211688827E+02  0.14597484929E+02  0.10164157933E+03  0.90251272682E+02 0.  0.
         23    2    1    2    0    0  0.42403810435E+02 -0.13211688827E+02 -0.19113971264E+03  0.22040695899E+03  0.10036038044E+03 0.  0.
          5    1    4    4  502    0  0.80702602261E+01 -0.38435717266E+02 -0.20665866612E+02  0.44627362735E+02  0.47000000000E+01 0. -1.
         -5    1    3    3    0  503 -0.24018538466E+02  0.49033558743E+02 -0.77574234932E+01  0.55348420866E+02  0.47000000000E+01 0.  1.
          5    1    3    3  503    0 -0.18385271969E+02 -0.35821869917E+02  0.22354908423E+02  0.46293158461E+02  0.47000000000E+01 0. -1.
         -5    1    4    4    0  502  0.34333550209E+02  0.25224028439E+02 -0.17047384603E+03  0.17577959626E+03  0.47000000000E+01 0.  1.
<mgrwt>
<rscale>  0 0.10738331E+03</rscale>
<asrwt>0</asrwt>
<pdfrwt beam="1">  1        3 0.11192793E-01 0.10974898E+03</pdfrwt>
<pdfrwt beam="2">  1       -3 0.38353135E-01 0.10974898E+03</pdfrwt>
<totfact> 0.91736692E+02</totfact>
</mgrwt>
</event>
<event>
 8    1  0.1893090E-003  0.2537195E+03  0.7546771E-02  0.1110998E+00
         -3   -1    0    0    0  501 -0.00000000000E+00  0.00000000000E+00  0.28482627612E+03  0.28482627612E+03  0.00000000000E+00 0.  1.
          3   -1    0    0  501    0  0.00000000000E+00 -0.00000000000E+00 -0.23649072588E+03  0.23649072588E+03  0.00000000000E+00 0. -1.
         23    2    1    2    0    0 -0.13219360433E+03  0.19642173202E+03  0.79367042882E+02  0.26584337075E+03  0.91197173444E+02 0.  0.
         23    2    1    2    0    0  0.13219360433E+03 -0.19642173202E+03 -0.31031492645E+02  0.25547363125E+03  0.90813968602E+02 0.  0.
          5    1    4    4  502    0  0.12225668974E+03 -0.14129471767E+03  0.79418016511E+01  0.18707233264E+03  0.47000000000E+01 0. -1.
         -5    1    3    3    0  503 -0.81576812064E+02  0.18404936787E+03  0.61393324148E+02  0.21052357666E+03  0.47000000000E+01 0.  1.
          5    1    3    3  503    0 -0.50616792265E+02  0.12372364151E+02  0.17973718735E+02  0.55319794098E+02  0.47000000000E+01 0. -1.
         -5    1    4    4    0  502  0.99369145900E+01 -0.55127014349E+02 -0.38973294296E+02  0.68401298606E+02  0.47000000000E+01 0.  1.
<mgrwt>
<rscale>  0 0.25368509E+03</rscale>
<asrwt>0</asrwt>
<pdfrwt beam="1">  1        3 0.36383189E-01 0.25371947E+03</pdfrwt>
<pdfrwt beam="2">  1       -3 0.43819427E-01 0.25371947E+03</pdfrwt>
<totfact> 0.96521419E+01</totfact>
</mgrwt>
</event>
<event>
 8    1  0.1893090E-003  0.9551455E+02  0.7546771E-02  0.1290037E+00
         -2   -1    0    0    0  501 -0.00000000000E+00  0.00000000000E+00  0.74112524117E+02  0.74112524117E+02  0.00000000000E+00 0.  1.
          2   -1    0    0  501    0  0.00000000000E+00 -0.00000000000E+00 -0.36107808288E+03  0.36107808288E+03  0.00000000000E+00 0. -1.
         23    2    1    2    0    0 -0.28661690745E+02  0.11914738140E+02  0.33190228473E+02  0.10109068469E+03  0.90301061814E+02 0.  0.
         23    2    1    2    0    0  0.28661690745E+02 -0.11914738140E+02 -0.32015578723E+03  0.33409992230E+03  0.90330374076E+02 0.  0.
          5    1    3    3  502    0 -0.13628717265E+02  0.49610561423E+02  0.30843122585E+02  0.60169244219E+02  0.47000000000E+01 0. -1.
         -5    1    3    3    0  502 -0.15032973479E+02 -0.37695823283E+02  0.23471058878E+01  0.40921440476E+02  0.47000000000E+01 0.  1.
          5    1    4    4  503    0  0.43525062341E+02  0.14568180582E+02 -0.83003634582E+02  0.94965026674E+02  0.47000000000E+01 0. -1.
         -5    1    4    4    0  503 -0.14863371596E+02 -0.26482918722E+02 -0.23715215265E+03  0.23913489563E+03  0.47000000000E+01 0.  1.
<mgrwt>
<rscale>  0 0.95507623E+02</rscale>
<asrwt>0</asrwt>
<pdfrwt beam="1">  1        2 0.55550473E-01 0.95514554E+02</pdfrwt>
<pdfrwt beam="2">  1       -2 0.11401927E-01 0.95514554E+02</pdfrwt>
<totfact> 0.45236206E+03</totfact>
</mgrwt>
</event>
<event>
 8    1  0.1893090E-003  0.1593635E+03  0.7546771E-02  0.1189548E+00
         -3   -1    0    0    0  501 -0.00000000000E+00  0.00000000000E+00  0.14675342246E+03  0.14675342246E+03  0.00000000000E+00 0.  1.
          3   -1    0    0  501    0  0.00000000000E+00 -0.00000000000E+00 -0.17304485338E+03  0.17304485338E+03  0.00000000000E+00 0. -1.
         23    2    1    2    0    0  0.64822310087E+02  0.11143032443E+03 -0.46950397577E+01  0.15943267168E+03  0.93691431383E+02 0.  0.
         23    2    1    2    0    0 -0.64822310087E+02 -0.11143032443E+03 -0.21596391160E+02  0.16036560416E+03  0.92908954361E+02 0.  0.
          5    1    3    3  502    0  0.38251279722E+02  0.12313962427E+03  0.28678606997E+01  0.12906138885E+03  0.47000000000E+01 0. -1.
         -5    1    3    3    0  502  0.26571030365E+02 -0.11709299848E+02 -0.75629004574E+01  0.30371282833E+02  0.47000000000E+01 0.  1.
          5    1    4    4  503    0 -0.12884059366E+02 -0.36633259049E+02 -0.51259262261E+02  0.64479427896E+02  0.47000000000E+01 0. -1.
         -5    1    4    4    0  503 -0.51938250721E+02 -0.74797065376E+02  0.29662871101E+02  0.95886176265E+02  0.47000000000E+01 0.  1.
<mgrwt>
<rscale>  0 0.15924871E+03</rscale>
<asrwt>0</asrwt>
<pdfrwt beam="1">  1        3 0.26622285E-01 0.15936353E+03</pdfrwt>
<pdfrwt beam="2">  1       -3 0.22577450E-01 0.15936353E+03</pdfrwt>
<totfact> 0.57357500E+02</totfact>
</mgrwt>
</event>
<event>
 8    1  0.1893090E-003  0.1049204E+03  0.7546771E-02  0.1270557E+00
         -4   -1    0    0    0  501 -0.00000000000E+00  0.00000000000E+00  0.21529885451E+03  0.21529885451E+03  0.00000000000E+00 0.  1.
          4   -1    0    0  501    0  0.00000000000E+00 -0.00000000000E+00 -0.64603216518E+02  0.64603216518E+02  0.00000000000E+00 0. -1.
         23    2    1    2    0    0  0.50247704856E+02 -0.33991854233E+01  0.14007008759E+03  0.17500832387E+03  0.92042912188E+02 0.  0.
         23    2    1    2    0    0 -0.50247704856E+02  0.33991854233E+01  0.10625550405E+02  0.10489374715E+03  0.91396988821E+02 0.  0.
          5    1    3    3  502    0  0.22616389154E+02 -0.35989149303E+02  0.19491579037E+02  0.46997144374E+02  0.47000000000E+01 0. -1.
         -5    1    4    4    0  503 -0.12351760282E+02  0.26884340185E+02  0.40973954390E+02  0.50757153856E+02  0.47000000000E+01 0.  1.
          5    1    4    4  503    0 -0.37895944574E+02 -0.23485154762E+02 -0.30348403985E+02  0.54136593297E+02  0.47000000000E+01 0. -1.
         -5    1    3    3    0  502  0.27631315702E+02  0.32589963880E+02  0.12057850855E+03  0.12801117950E+03  0.47000000000E+01 0.  1.
<mgrwt>
<rscale>  0 0.10477854E+03</rscale>
<asrwt>0</asrwt>
<pdfrwt beam="1">  1        4 0.99389565E-02 0.10492037E+03</pdfrwt>
<pdfrwt beam="2">  1       -4 0.33122900E-01 0.10492037E+03</pdfrwt>
<totfact> 0.10506753E+03</totfact>
</mgrwt>
</event>
<event>
 8    1  0.1893090E-003  0.9653811E+02  0.7546771E-02  0.1289018E+00
          1   -1    0    0  501    0  0.00000000000E+00  0.00000000000E+00  0.37716026063E+03  0.37716026063E+03  0.00000000000E+00 0. -1.
         -1   -1    0    0    0  501 -0.00000000000E+00 -0.00000000000E+00 -0.35057624571E+02  0.35057624571E+02  0.00000000000E+00 0.  1.
         23    2    1    2    0    0 -0.31254232804E+02 -0.11383674975E+02  0.54590258191E+02  0.10893093504E+03  0.88201117879E+02 0.  0.
         23    2    1    2    0    0  0.31254232804E+02  0.11383674975E+02  0.28751237787E+03  0.30328695016E+03  0.90626660463E+02 0.  0.
          5    1    4    4  502    0  0.21406657604E+02  0.45945266631E+02  0.98984579409E+02  0.11130700551E+03  0.47000000000E+01 0. -1.
         -5    1    3    3    0  503 -0.52658242934E+02  0.12917257425E+02  0.12896817233E+02  0.55929991802E+02  0.47000000000E+01 0.  1.
          5    1    3    3  503    0  0.21404010130E+02 -0.24300932399E+02  0.41693440958E+02  0.53000943237E+02  0.47000000000E+01 0. -1.
         -5    1    4    4    0  502  0.98475751994E+01 -0.34561591657E+02  0.18852779846E+03  0.19197994465E+03  0.47000000000E+01 0.  1.
<mgrwt>
<rscale>  0 0.95964694E+02</rscale>
<asrwt>0</asrwt>
<pdfrwt beam="1">  1        1 0.58024653E-01 0.96538110E+02</pdfrwt>
<pdfrwt beam="2">  1       -1 0.53934810E-02 0.96538110E+02</pdfrwt>
<totfact> 0.94865559E+03</totfact>
</mgrwt>
</event>
<event>
 8    1  0.1893090E-003  0.8704641E+02  0.7546771E-02  0.1318810E+00
         -2   -1    0    0    0  501 -0.00000000000E+00  0.00000000000E+00  0.32891097654E+02  0.32891097654E+02  0.00000000000E+00 0.  1.
          2   -1    0    0  501    0  0.00000000000E+00 -0.00000000000E+00 -0.49569422101E+03  0.49569422101E+03  0.00000000000E+00 0. -1.
         23    2    1    2    0    0 -0.17176133710E+02  0.28120196997E+02 -0.19751124938E+02  0.77063281351E+02  0.66804770398E+02 0.  0.
         23    2    1    2    0    0  0.17176133710E+02 -0.28120196997E+02 -0.44305199842E+03  0.45152203732E+03  0.80568677718E+02 0.  0.
          5    1    4    4  502    0  0.42233769972E+01 -0.51602643147E+02 -0.36859414163E+03  0.37224239540E+03  0.47000000000E+01 0. -1.
         -5    1    4    4    0  502  0.12952756713E+02  0.23482446151E+02 -0.74457856794E+02  0.79279641915E+02  0.47000000000E+01 0.  1.
          5    1    3    3  503    0 -0.26374653182E+02 -0.24579586150E+01 -0.32649732177E+02  0.42305542216E+02  0.47000000000E+01 0. -1.
         -5    1    3    3    0  503  0.91985194713E+01  0.30578155612E+02  0.12898607239E+02  0.34757739135E+02  0.47000000000E+01 0.  1.
<mgrwt>
<rscale>  0 0.83721399E+02</rscale>
<asrwt>0</asrwt>
<pdfrwt beam="1">  1        2 0.76260644E-01 0.87046406E+02</pdfrwt>
<pdfrwt beam="2">  1       -2 0.50601692E-02 0.87046406E+02</pdfrwt>
<totfact> 0.11087249E+04</totfact>
</mgrwt>
</event>
<event>
 8    1  0.1893090E-003  0.1001632E+03  0.7546771E-02  0.1280177E+00
          1   -1    0    0  501    0  0.00000000000E+00  0.00000000000E+00  0.11879984492E+03  0.11879984492E+03  0.00000000000E+00 0. -1.
         -1   -1    0    0    0  501 -0.00000000000E+00 -0.00000000000E+00 -0.14634671088E+03  0.14634671088E+03  0.00000000000E+00 0.  1.
         23    2    1    2    0    0  0.30595182659E+02 -0.25556502840E+02 -0.10022333610E+03  0.14139462256E+03  0.91424953646E+02 0.  0.
         23    2    1    2    0    0 -0.30595182659E+02  0.25556502840E+02  0.72676470138E+02  0.12375193324E+03  0.91888365042E+02 0.  0.
          5    1    3    3  502    0  0.13132471022E+02  0.30338279540E+02 -0.12164144617E+02  0.35537718200E+02  0.47000000000E+01 0. -1.
         -5    1    3    3    0  502  0.17462711637E+02 -0.55894782380E+02 -0.88059191487E+02  0.10585690436E+03  0.47000000000E+01 0.  1.
          5    1    4    4  503    0 -0.42353483913E+02  0.50049570597E+02  0.70038243459E+02  0.96053228282E+02  0.47000000000E+01 0. -1.
         -5    1    4    4    0  503  0.11758301253E+02 -0.24493067756E+02  0.26382266786E+01  0.27698704960E+02  0.47000000000E+01 0.  1.
<mgrwt>
<rscale>  0 0.10005682E+03</rscale>
<asrwt>0</asrwt>
<pdfrwt beam="1">  1        1 0.18276899E-01 0.10016323E+03</pdfrwt>
<pdfrwt beam="2">  1       -1 0.22514879E-01 0.10016323E+03</pdfrwt>
<totfact> 0.44687866E+03</totfact>
</mgrwt>
</event>
<event>
 8    1  0.1893090E-003  0.1100807E+03  0.7546771E-02  0.1263488E+00
         -1   -1    0    0    0  501 -0.00000000000E+00  0.00000000000E+00  0.52304984553E+03  0.52304984553E+03  0.00000000000E+00 0.  1.
          1   -1    0    0  501    0  0.00000000000E+00 -0.00000000000E+00 -0.21743199742E+03  0.21743199742E+03  0.00000000000E+00 0. -1.
         23    2    1    2    0    0  0.96261410036E+01 -0.54389978523E+02  0.50441245220E+03  0.51628450089E+03  0.95219911626E+02 0.  0.
         23    2    1    2    0    0 -0.96261410036E+01  0.54389978523E+02 -0.19879460410E+03  0.22419734206E+03  0.87716709996E+02 0.  0.
          5    1    4    4  502    0  0.93842771367E+01  0.35247420092E+02 -0.19265363972E+03  0.19613250668E+03  0.47000000000E+01 0. -1.
         -5    1    3    3    0  503  0.36815670611E+02 -0.66725665401E+02  0.29587084030E+03  0.30556399030E+03  0.47000000000E+01 0.  1.
          5    1    3    3  503    0 -0.27189529607E+02  0.12335686878E+02  0.20854161190E+03  0.21072051059E+03  0.47000000000E+01 0. -1.
         -5    1    4    4    0  502 -0.19010418140E+02  0.19142558432E+02 -0.61409643809E+01  0.28064835376E+02  0.47000000000E+01 0.  1.
<mgrwt>
<rscale>  0 0.10843888E+03</rscale>
<asrwt>0</asrwt>
<pdfrwt beam="1">  1        1 0.33451077E-01 0.11008072E+03</pdfrwt>
<pdfrwt beam="2">  1       -1 0.80469206E-01 0.11008072E+03</pdfrwt>
<totfact> 0.21810980E+02</totfact>
</mgrwt>
</event>
<event>
 7    1  0.1893090E-003  0.4696996E+03  0.7546771E-02  0.1022005E+00
          2   -1    0    0  501    0  0.00000000000E+00  0.00000000000E+00  0.18537404199E+03  0.18537404199E+03  0.00000000000E+00 0. -1.
         -2   -1    0    0    0  501 -0.00000000000E+00 -0.00000000000E+00 -0.29753050725E+03  0.29753050725E+03  0.00000000000E+00 0.  1.
         23    2    1    2    0    0 -0.37116552652E+02  0.78595873149E+02 -0.58168638166E+02  0.13824395417E+03  0.90403819833E+02 0.  0.
          5    1    3    3  502    0  0.24145940110E+02  0.48841452306E+02 -0.12463192322E+02  0.56088635659E+02  0.47000000000E+01 0. -1.
         -5    1    1    2    0  503 -0.56201276303E+01  0.10228056992E+03 -0.11010518716E+03  0.15045977222E+03  0.47000000000E+01 0.  1.
          5    1    1    2  503    0  0.42736680283E+02 -0.18087644306E+03  0.56117360062E+02  0.19420082286E+03  0.47000000000E+01 0. -1.
         -5    1    3    3    0  502 -0.61262492762E+02  0.29754420842E+02 -0.45705445844E+02  0.82155318506E+02  0.47000000000E+01 0.  1.
<mgrwt>
<rscale>  0 0.46969962E+03</rscale>
<asrwt>0</asrwt>
<pdfrwt beam="1">  1        2 0.28519084E-01 0.46969962E+03</pdfrwt>
<pdfrwt beam="2">  1       -2 0.45773924E-01 0.46969962E+03</pdfrwt>
<totfact> 0.85560288E+02</totfact>
</mgrwt>
</event>
<event>
 8    1  0.1893090E-003  0.1125068E+03  0.7546771E-02  0.1261883E+00
         -1   -1    0    0    0  501 -0.00000000000E+00  0.00000000000E+00  0.66828457241E+02  0.66828457241E+02  0.00000000000E+00 0.  1.
          1   -1    0    0  501    0  0.00000000000E+00 -0.00000000000E+00 -0.17073943187E+03  0.17073943187E+03  0.00000000000E+00 0. -1.
         23    2    1    2    0    0  0.66028561151E+02 -0.11991674258E+01 -0.37886846523E+02  0.10711883061E+03  0.75351322764E+02 0.  0.
         23    2    1    2    0    0 -0.66028561151E+02  0.11991674258E+01 -0.66024128105E+02  0.13044905850E+03  0.91085467999E+02 0.  0.
          5    1    4    4  502    0 -0.31843822118E+02  0.43801159322E+02 -0.17136052691E+02  0.56993902015E+02  0.47000000000E+01 0. -1.
         -5    1    4    4    0  502 -0.34184739033E+02 -0.42601991896E+02 -0.48888075414E+02  0.73455156483E+02  0.47000000000E+01 0.  1.
          5    1    3    3  503    0  0.42636871119E+02  0.28806178532E+02 -0.44531926761E+02  0.68212031208E+02  0.47000000000E+01 0. -1.
         -5    1    3    3    0  503  0.23391690032E+02 -0.30005345958E+02  0.66450802380E+01  0.38906799405E+02  0.47000000000E+01 0.  1.
<mgrwt>
<rscale>  0 0.10929378E+03</rscale>
<asrwt>0</asrwt>
<pdfrwt beam="1">  1        1 0.26267605E-01 0.11250676E+03</pdfrwt>
<pdfrwt beam="2">  1       -1 0.10281301E-01 0.11250676E+03</pdfrwt>
<totfact> 0.97225325E+03</totfact>
</mgrwt>
</event>
<event>
 8    1  0.1893090E-003  0.9579944E+02  0.7546771E-02  0.1294669E+00
          1   -1    0    0  501    0  0.00000000000E+00  0.00000000000E+00  0.33055337643E+03  0.33055337643E+03  0.00000000000E+00 0. -1.
         -1   -1    0    0    0  501 -0.00000000000E+00 -0.00000000000E+00 -0.25342314315E+02  0.25342314315E+02  0.00000000000E+00 0.  1.
         23    2    1    2    0    0  0.18612538949E+02 -0.10514860994E+02  0.15758680327E+03  0.17991144522E+03  0.84128108541E+02 0.  0.
         23    2    1    2    0    0 -0.18612538949E+02  0.10514860994E+02  0.14762425884E+03  0.17598424553E+03  0.93383852819E+02 0.  0.
          5    1    4    4  502    0  0.17021868604E+02  0.16095162882E+02 -0.53114403290E-01  0.23893327523E+02  0.47000000000E+01 0. -1.
         -5    1    4    4    0  502 -0.35634407553E+02 -0.55803018882E+01  0.14767737325E+03  0.15209091801E+03  0.47000000000E+01 0.  1.
          5    1    3    3  503    0  0.22906034151E+02  0.33098659283E+02  0.55541485107E+02  0.68754303245E+02  0.47000000000E+01 0. -1.
         -5    1    3    3    0  503 -0.42934952022E+01 -0.43613520277E+02  0.10204531816E+03  0.11115714197E+03  0.47000000000E+01 0.  1.
<mgrwt>
<rscale>  0 0.93466124E+02</rscale>
<asrwt>0</asrwt>
<pdfrwt beam="1">  1        1 0.50854363E-01 0.95799441E+02</pdfrwt>
<pdfrwt beam="2">  1       -1 0.38988178E-02 0.95799441E+02</pdfrwt>
<totfact> 0.17923337E+04</totfact>
</mgrwt>
</event>
<event>
 8    1  0.1893090E-003  0.9572974E+02  0.7546771E-02  0.1290803E+00
          1   -1    0    0  501    0  0.00000000000E+00  0.00000000000E+00  0.27857565367E+03  0.27857565367E+03  0.00000000000E+00 0. -1.
         -1   -1    0    0    0  501 -0.00000000000E+00 -0.00000000000E+00 -0.53328206891E+02  0.53328206891E+02  0.00000000000E+00 0.  1.
         23    2    1    2    0    0  0.59406356685E+01  0.21794972800E+02  0.88076996878E+01  0.96134064571E+02  0.93026183441E+02 0.  0.
         23    2    1    2    0    0 -0.59406356685E+01 -0.21794972800E+02  0.21643974709E+03  0.23576979599E+03  0.90724421124E+02 0.  0.
          5    1    3    3  502    0 -0.25285955265E+02  0.48056262543E+02  0.23330911200E+01  0.54555634149E+02  0.47000000000E+01 0. -1.
         -5    1    4    4    0  503  0.41285487290E+02 -0.10718112635E+01  0.89950841511E+02  0.99090282716E+02  0.47000000000E+01 0.  1.
          5    1    4    4  503    0 -0.47226122959E+02 -0.20723161537E+02  0.12648890558E+03  0.13667951327E+03  0.47000000000E+01 0. -1.
         -5    1    3    3    0  502  0.31226590933E+02 -0.26261289742E+02  0.64746085678E+01  0.41578430422E+02  0.47000000000E+01 0.  1.
<mgrwt>
<rscale>  0 0.95165983E+02</rscale>
<asrwt>0</asrwt>
<pdfrwt beam="1">  1        1 0.42857792E-01 0.95729738E+02</pdfrwt>
<pdfrwt beam="2">  1       -1 0.82043397E-02 0.95729738E+02</pdfrwt>
<totfact> 0.73854130E+03</totfact>
</mgrwt>
</event>
<event>
 8    1  0.1893090E-003  0.1225333E+03  0.7546771E-02  0.1239831E+00
          2   -1    0    0  501    0  0.00000000000E+00  0.00000000000E+00  0.11294936444E+04  0.11294936444E+04  0.00000000000E+00 0. -1.
         -2   -1    0    0    0  501 -0.00000000000E+00 -0.00000000000E+00 -0.15067280118E+02  0.15067280118E+02  0.00000000000E+00 0.  1.
         23    2    1    2    0    0 -0.53199116334E+02  0.60782904726E+02  0.34438319185E+03  0.36482962818E+03  0.89309390795E+02 0.  0.
         23    2    1    2    0    0  0.53199116334E+02 -0.60782904726E+02  0.77004317245E+03  0.77973129636E+03  0.92139565839E+02 0.  0.
          5    1    4    4  502    0  0.55467688310E+02 -0.81685058808E+02  0.56740115989E+03  0.57594728885E+03  0.47000000000E+01 0. -1.
         -5    1    4    4    0  502 -0.22685719758E+01  0.20902154082E+02  0.20264201256E+03  0.20378400751E+03  0.47000000000E+01 0.  1.
          5    1    3    3  503    0 -0.17524589366E+02 -0.13908196793E+02  0.17236761598E+03  0.17387706637E+03  0.47000000000E+01 0. -1.
         -5    1    3    3    0  503 -0.35674526969E+02  0.74691101519E+02  0.17201557586E+03  0.19095256181E+03  0.47000000000E+01 0.  1.
<mgrwt>
<rscale>  0 0.12200141E+03</rscale>
<asrwt>0</asrwt>
<pdfrwt beam="1">  1        2 0.17376819E+00 0.12253329E+03</pdfrwt>
<pdfrwt beam="2">  1       -2 0.23180440E-02 0.12253329E+03</pdfrwt>
<totfact> 0.13059680E+04</totfact>
</mgrwt>
</event>
<event>
 8    1  0.1893090E-003  0.9628078E+02  0.7546771E-02  0.1290538E+00
          2   -1    0    0  501    0  0.00000000000E+00  0.00000000000E+00  0.75745753076E+03  0.75745753076E+03  0.00000000000E+00 0. -1.
         -2   -1    0    0    0  501 -0.00000000000E+00 -0.00000000000E+00 -0.11805301396E+02  0.11805301396E+02  0.00000000000E+00 0.  1.
         23    2    1    2    0    0 -0.54402796073E+01  0.14462975999E+02  0.35289352010E+03  0.36579205192E+03  0.95032701725E+02 0.  0.
         23    2    1    2    0    0  0.54402796073E+01 -0.14462975999E+02  0.39275870926E+03  0.40347078024E+03  0.91052141603E+02 0.  0.
          5    1    3    3  502    0 -0.67797261769E+01  0.48534211566E+02  0.28950851470E+03  0.29366444194E+03  0.47000000000E+01 0. -1.
         -5    1    4    4    0  503  0.42268941445E+02  0.13905678404E+02  0.16437051789E+03  0.17035195466E+03  0.47000000000E+01 0.  1.
          5    1    4    4  503    0 -0.36828661837E+02 -0.28368654404E+02  0.22838819137E+03  0.23311882558E+03  0.47000000000E+01 0. -1.
         -5    1    3    3    0  502  0.13394465696E+01 -0.34071235567E+02  0.63385005407E+02  0.72127609974E+02  0.47000000000E+01 0.  1.
<mgrwt>
<rscale>  0 0.95283711E+02</rscale>
<asrwt>0</asrwt>
<pdfrwt beam="1">  1        2 0.11653189E+00 0.96280781E+02</pdfrwt>
<pdfrwt beam="2">  1       -2 0.18162008E-02 0.96280781E+02</pdfrwt>
<totfact> 0.30836863E+04</totfact>
</mgrwt>
</event>
<event>
 7    1  0.2383636E-003  0.1377638E+03  0.7546771E-02  0.1232837E+00
         -1   -1    0    0    0  501 -0.00000000000E+00  0.00000000000E+00  0.12213856626E+03  0.12213856626E+03  0.00000000000E+00 0.  1.
          1   -1    0    0  501    0  0.00000000000E+00 -0.00000000000E+00 -0.73216156501E+03  0.73216156501E+03  0.00000000000E+00 0. -1.
         23    2    1    2    0    0 -0.15468939108E+02  0.31405082454E+02  0.94781461027E+02  0.13615794855E+03  0.91268254707E+02 0.  0.
          5    1    1    2  502    0 -0.27473547913E+02 -0.58405542253E+02 -0.57608472586E+03  0.57970829265E+03  0.47000000000E+01 0. -1.
         -5    1    3    3    0  503  0.21599582277E+02 -0.90163770868E+01  0.73264660612E+02  0.77056067282E+02  0.47000000000E+01 0.  1.
          5    1    3    3  503    0 -0.37068521385E+02  0.40421459540E+02  0.21516800414E+02  0.59101881265E+02  0.47000000000E+01 0.  1.
         -5    1    1    2    0  502  0.42942487021E+02  0.27000459800E+02 -0.12871973392E+03  0.13843389007E+03  0.47000000000E+01 0.  1.
<mgrwt>
<rscale>  0 0.12643952E+03</rscale>
<asrwt>0</asrwt>
<pdfrwt beam="1">  1        1 0.11264024E+00 0.13776381E+03</pdfrwt>
<pdfrwt beam="2">  1       -1 0.18790548E-01 0.13776381E+03</pdfrwt>
<totfact> 0.59646116E+02</totfact>
</mgrwt>
</event>
<event>
 7    1  0.1893090E-003  0.1611518E+03  0.7546771E-02  0.1199421E+00
         -3   -1    0    0    0  501 -0.00000000000E+00  0.00000000000E+00  0.96512617743E+02  0.96512617743E+02  0.00000000000E+00 0.  1.
          3   -1    0    0  501    0  0.00000000000E+00 -0.00000000000E+00 -0.26671597746E+03  0.26671597746E+03  0.00000000000E+00 0. -1.
         23    2    1    2    0    0  0.80491936295E+02 -0.55813439575E+01  0.66825453081E+01  0.12394106408E+03  0.93843634543E+02 0.  0.
          5    1    1    2  502    0 -0.20069246898E+02 -0.62033985143E+02 -0.10406615135E+03  0.12289362815E+03  0.47000000000E+01 0. -1.
         -5    1    1    2    0  502 -0.60422689398E+02  0.67615329100E+02 -0.72819753672E+02  0.11639390297E+03  0.47000000000E+01 0.  1.
          5    1    3    3  503    0  0.24087797888E+02 -0.31509210358E+02 -0.31537299231E+02  0.50889523355E+02  0.47000000000E+01 0. -1.
         -5    1    3    3    0  503  0.56404138407E+02  0.25927866401E+02  0.38219844539E+02  0.73051540724E+02  0.47000000000E+01 0.  1.
<mgrwt>
<rscale>  0 0.15085931E+03</rscale>
<asrwt>0</asrwt>
<pdfrwt beam="1">  1        3 0.41033228E-01 0.16115179E+03</pdfrwt>
<pdfrwt beam="2">  1       -3 0.14848095E-01 0.16115179E+03</pdfrwt>
<totfact> 0.53034387E+02</totfact>
</mgrwt>
</event>
<event>
 8    1  0.1893090E-003  0.9675683E+02  0.7546771E-02  0.1287843E+00
          2   -1    0    0  501    0  0.00000000000E+00  0.00000000000E+00  0.79448707875E+02  0.79448707875E+02  0.00000000000E+00 0. -1.
         -2   -1    0    0    0  501 -0.00000000000E+00 -0.00000000000E+00 -0.12179203233E+03  0.12179203233E+03  0.00000000000E+00 0.  1.
         23    2    1    2    0    0 -0.25346253860E+02  0.13490359328E+02 -0.44958786329E+00  0.96757874046E+02  0.92398385706E+02 0.  0.
         23    2    1    2    0    0  0.25346253860E+02 -0.13490359328E+02 -0.41893736590E+02  0.10448286616E+03  0.91308059751E+02 0.  0.
          5    1    3    3  502    0 -0.45240465915E+02  0.19452379254E+02  0.31292250668E+02  0.58535371927E+02  0.47000000000E+01 0. -1.
         -5    1    3    3    0  502  0.19894212054E+02 -0.59620199259E+01 -0.31741838531E+02  0.38222502118E+02  0.47000000000E+01 0.  1.
          5    1    4    4  503    0 -0.31555245086E+02 -0.20496264668E+02 -0.12811538869E+02  0.40025690325E+02  0.47000000000E+01 0. -1.
         -5    1    4    4    0  503  0.56901498947E+02  0.70059053398E+01 -0.29082197721E+02  0.64457175832E+02  0.47000000000E+01 0.  1.
<mgrwt>
<rscale>  0 0.96495607E+02</rscale>
<asrwt>0</asrwt>
<pdfrwt beam="1">  1        2 0.12222878E-01 0.96756830E+02</pdfrwt>
<pdfrwt beam="2">  1       -2 0.18737236E-01 0.96756830E+02</pdfrwt>
<totfact> 0.10672182E+04</totfact>
</mgrwt>
</event>
<event>
 8    1  0.1893090E-003  0.2095742E+03  0.7546771E-02  0.1141984E+00
         -2   -1    0    0    0  501 -0.00000000000E+00  0.00000000000E+00  0.16439008477E+03  0.16439008477E+03  0.00000000000E+00 0.  1.
          2   -1    0    0  501    0  0.00000000000E+00 -0.00000000000E+00 -0.26683821487E+03  0.26683821487E+03  0.00000000000E+00 0. -1.
         23    2    1    2    0    0 -0.48395035545E+02  0.18179495265E+03 -0.56847527836E+02  0.21714743293E+03  0.92357359929E+02 0.  0.
         23    2    1    2    0    0  0.48395035545E+02 -0.18179495265E+03 -0.45600602263E+02  0.21408086671E+03  0.91431495068E+02 0.  0.
          5    1    3    3  502    0 -0.25666846424E+02  0.17401655205E+03 -0.26164267461E+02  0.17789661684E+03  0.47000000000E+01 0. -1.
         -5    1    4    4    0  503  0.64333228319E+02 -0.96844625975E+02 -0.25119899868E+00  0.11636064174E+03  0.47000000000E+01 0.  1.
          5    1    4    4  503    0 -0.15938192774E+02 -0.84950326679E+02 -0.45349403265E+02  0.97720224970E+02  0.47000000000E+01 0. -1.
         -5    1    3    3    0  502 -0.22728189122E+02  0.77784006066E+01 -0.30683260375E+02  0.39250816093E+02  0.47000000000E+01 0.  1.
<mgrwt>
<rscale>  0 0.20947258E+03</rscale>
<asrwt>0</asrwt>
<pdfrwt beam="1">  1        2 0.41052033E-01 0.20957425E+03</pdfrwt>
<pdfrwt beam="2">  1       -2 0.25290783E-01 0.20957425E+03</pdfrwt>
<totfact> 0.17156730E+03</totfact>
</mgrwt>
</event>
<event>
 8    1  0.1893090E-003  0.9730948E+02  0.7546771E-02  0.1287047E+00
         -3   -1    0    0    0  501 -0.00000000000E+00  0.00000000000E+00  0.12742792576E+03  0.12742792576E+03  0.00000000000E+00 0.  1.
          3   -1    0    0  501    0  0.00000000000E+00 -0.00000000000E+00 -0.13785941513E+03  0.13785941513E+03  0.00000000000E+00 0. -1.
         23    2    1    2    0    0 -0.31178870762E+02  0.84176916207E+01  0.85777250274E+02  0.12971843127E+03  0.91794091489E+02 0.  0.
         23    2    1    2    0    0  0.31178870762E+02 -0.84176916207E+01 -0.96208739648E+02  0.13556890962E+03  0.89887864344E+02 0.  0.
          5    1    3    3  502    0 -0.19734575917E+01  0.47487478605E+02  0.35494134531E+02  0.59505283339E+02  0.47000000000E+01 0. -1.
         -5    1    3    3    0  502 -0.29205413170E+02 -0.39069786985E+02  0.50283115743E+02  0.70213147930E+02  0.47000000000E+01 0.  1.
          5    1    4    4  503    0  0.61380854605E+02 -0.12451386686E+02 -0.76489106960E+02  0.98971308095E+02  0.47000000000E+01 0. -1.
         -5    1    4    4    0  503 -0.30201983843E+02  0.40336950650E+01 -0.19719632688E+02  0.36597601524E+02  0.47000000000E+01 0.  1.
<mgrwt>
<rscale>  0 0.96857315E+02</rscale>
<asrwt>0</asrwt>
<pdfrwt beam="1">  1        3 0.21209141E-01 0.97309479E+02</pdfrwt>
<pdfrwt beam="2">  1       -3 0.19604296E-01 0.97309479E+02</pdfrwt>
<totfact> 0.10234371E+03</totfact>
</mgrwt>
</event>
<event>
 8    1  0.1893090E-003  0.1136829E+03  0.7546771E-02  0.1254665E+00
          2   -1    0    0  501    0  0.00000000000E+00  0.00000000000E+00  0.34535592065E+03  0.34535592065E+03  0.00000000000E+00 0. -1.
         -2   -1    0    0    0  501 -0.00000000000E+00 -0.00000000000E+00 -0.41160844040E+02  0.41160844040E+02  0.00000000000E+00 0.  1.
         23    2    1    2    0    0 -0.53493988799E+02 -0.33036208911E+02  0.21561241396E+03  0.24374680476E+03  0.94714274741E+02 0.  0.
         23    2    1    2    0    0  0.53493988799E+02  0.33036208911E+02  0.88582662654E+02  0.14276995994E+03  0.92646507761E+02 0.  0.
          5    1    3    3  502    0 -0.77844103359E+02 -0.37956209972E+02  0.14772507559E+03  0.17130430894E+03  0.47000000000E+01 0. -1.
         -5    1    4    4    0  503  0.26989352670E+02  0.45917157366E+02  0.46269382407E+01  0.53668510838E+02  0.47000000000E+01 0.  1.
          5    1    4    4  503    0  0.26504636128E+02 -0.12880948455E+02  0.83955724414E+02  0.89101449097E+02  0.47000000000E+01 0. -1.
         -5    1    3    3    0  502  0.24350114560E+02  0.49200010615E+01  0.67887338367E+02  0.72442495817E+02  0.47000000000E+01 0.  1.
<mgrwt>
<rscale>  0 0.11325118E+03</rscale>
<asrwt>0</asrwt>
<pdfrwt beam="1">  1        2 0.53131678E-01 0.11368286E+03</pdfrwt>
<pdfrwt beam="2">  1       -2 0.63324378E-02 0.11368286E+03</pdfrwt>
<totfact> 0.11889389E+04</totfact>
</mgrwt>
</event>
<event>
 8    1  0.1893090E-003  0.9450974E+02  0.7546771E-02  0.1293000E+00
          1   -1    0    0  501    0  0.00000000000E+00  0.00000000000E+00  0.23280819701E+02  0.23280819701E+02  0.00000000000E+00 0. -1.
         -1   -1    0    0    0  501 -0.00000000000E+00 -0.00000000000E+00 -0.46571008439E+03  0.46571008439E+03  0.00000000000E+00 0.  1.
         23    2    1    2    0    0 -0.21989904107E+02  0.12265540509E+02 -0.32575718103E+03  0.33884275924E+03  0.89792400164E+02 0.  0.
         23    2    1    2    0    0  0.21989904107E+02 -0.12265540509E+02 -0.11667208365E+03  0.15014814485E+03  0.91093857813E+02 0.  0.
          5    1    3    3  502    0 -0.49036458515E+02 -0.14465362285E+01 -0.10532094989E+03  0.11628094950E+03  0.47000000000E+01 0. -1.
         -5    1    4    4    0  503 -0.23250831384E+02 -0.32780839599E+02 -0.30877167316E+02  0.50898664681E+02  0.47000000000E+01 0.  1.
          5    1    4    4  503    0  0.45240735491E+02  0.20515299090E+02 -0.85794916336E+02  0.99249480168E+02  0.47000000000E+01 0. -1.
         -5    1    3    3    0  502  0.27046554408E+02  0.13712076737E+02 -0.22043623114E+03  0.22256180974E+03  0.47000000000E+01 0.  1.
<mgrwt>
<rscale>  0 0.94194721E+02</rscale>
<asrwt>0</asrwt>
<pdfrwt beam="1">  1        1 0.35816649E-02 0.94509737E+02</pdfrwt>
<pdfrwt beam="2">  1       -1 0.71647698E-01 0.94509737E+02</pdfrwt>
<totfact> 0.50398390E+03</totfact>
</mgrwt>
</event>
<event>
 8    1  0.1893090E-003  0.9583915E+02  0.7546771E-02  0.1289971E+00
          1   -1    0    0  501    0  0.00000000000E+00  0.00000000000E+00  0.56067828338E+03  0.56067828338E+03  0.00000000000E+00 0. -1.
         -1   -1    0    0    0  501 -0.00000000000E+00 -0.00000000000E+00 -0.30084817208E+02  0.30084817208E+02  0.00000000000E+00 0.  1.
         23    2    1    2    0    0  0.57567470788E+01 -0.23641719957E+02  0.63564376104E+02  0.11400182511E+03  0.91454443078E+02 0.  0.
         23    2    1    2    0    0 -0.57567470788E+01  0.23641719957E+02  0.46702909007E+03  0.47676127549E+03  0.92698822919E+02 0.  0.
          5    1    4    4  502    0 -0.40430287205E+02  0.16498907881E+02  0.38228685382E+03  0.38480144320E+03  0.47000000000E+01 0. -1.
         -5    1    3    3    0  503  0.22298874219E+01  0.30456764120E+02  0.76696498068E+00  0.30907363424E+02  0.47000000000E+01 0.  1.
          5    1    3    3  503    0  0.35268596569E+01 -0.54098484077E+02  0.62797411124E+02  0.83094461682E+02  0.47000000000E+01 0. -1.
         -5    1    4    4    0  502  0.34673540126E+02  0.71428120758E+01  0.84742236248E+02  0.91959832283E+02  0.47000000000E+01 0.  1.
<mgrwt>
<rscale>  0 0.95536955E+02</rscale>
<asrwt>0</asrwt>
<pdfrwt beam="1">  1        1 0.86258190E-01 0.95839151E+02</pdfrwt>
<pdfrwt beam="2">  1       -1 0.46284338E-02 0.95839151E+02</pdfrwt>
<totfact> 0.71650017E+03</totfact>
</mgrwt>
</event>
<event>
 8    1  0.1893090E-003  0.1164601E+03  0.7546771E-02  0.1251519E+00
         -1   -1    0    0    0  501 -0.00000000000E+00  0.00000000000E+00  0.34756404180E+02  0.34756404180E+02  0.00000000000E+00 0.  1.
          1   -1    0    0  501    0  0.00000000000E+00 -0.00000000000E+00 -0.50845464057E+03  0.50845464057E+03  0.00000000000E+00 0. -1.
         23    2    1    2    0    0 -0.52063701605E+02 -0.35492694254E+02 -0.91765097141E+02  0.14391681400E+03  0.91218725756E+02 0.  0.
         23    2    1    2    0    0  0.52063701605E+02  0.35492694254E+02 -0.38193313925E+03  0.39929423075E+03  0.97941816825E+02 0.  0.
          5    1    3    3  502    0 -0.32783373004E+02 -0.48788587597E+02 -0.10208790726E+03  0.11789447245E+03  0.47000000000E+01 0. -1.
         -5    1    3    3    0  502 -0.19280328601E+02  0.13295893343E+02  0.10322810124E+02  0.26022341547E+02  0.47000000000E+01 0.  1.
          5    1    4    4  503    0  0.63029385333E+02  0.91366053681E+01 -0.35169269511E+03  0.35744373370E+03  0.47000000000E+01 0. -1.
         -5    1    4    4    0  503 -0.10965683727E+02  0.26356088886E+02 -0.30240444140E+02  0.41850497043E+02  0.47000000000E+01 0.  1.
<mgrwt>
<rscale>  0 0.11503561E+03</rscale>
<asrwt>0</asrwt>
<pdfrwt beam="1">  1        1 0.78223787E-01 0.11646012E+03</pdfrwt>
<pdfrwt beam="2">  1       -1 0.53471393E-02 0.11646012E+03</pdfrwt>
<totfact> 0.66728407E+03</totfact>
</mgrwt>
</event>
<event>
 8    1  0.1893090E-003  0.1440332E+03  0.7546771E-02  0.1217940E+00
          4   -1    0    0  501    0  0.00000000000E+00  0.00000000000E+00  0.28894618285E+03  0.28894618285E+03  0.00000000000E+00 0. -1.
         -4   -1    0    0    0  501 -0.00000000000E+00 -0.00000000000E+00 -0.14689252425E+03  0.14689252425E+03  0.00000000000E+00 0.  1.
         23    2    1    2    0    0  0.44733406530E+01 -0.72341859604E+02 -0.94385110997E+02  0.17220367562E+03  0.12446767168E+03 0.  0.
         23    2    1    2    0    0 -0.44733406530E+01  0.72341859604E+02  0.23643876959E+03  0.26363503147E+03  0.91360728025E+02 0.  0.
          5    1    3    3  502    0  0.62223228508E+02 -0.53417437396E+02 -0.44383277498E+02  0.93365508114E+02  0.47000000000E+01 0. -1.
         -5    1    4    4    0  503  0.43084510856E+02  0.37129319358E+02  0.12339314373E+03  0.13595153310E+03  0.47000000000E+01 0.  1.
          5    1    4    4  503    0 -0.47557851509E+02  0.35212540246E+02  0.11304562586E+03  0.12768349838E+03  0.47000000000E+01 0. -1.
         -5    1    3    3    0  502 -0.57749887855E+02 -0.18924422207E+02 -0.50001833499E+02  0.78838167511E+02  0.47000000000E+01 0.  1.
<mgrwt>
<rscale>  0 0.13662804E+03</rscale>
<asrwt>0</asrwt>
<pdfrwt beam="1">  1        4 0.44453259E-01 0.14403318E+03</pdfrwt>
<pdfrwt beam="2">  1       -4 0.22598850E-01 0.14403318E+03</pdfrwt>
<totfact> 0.15026625E+02</totfact>
</mgrwt>
</event>
<event>
 8    1  0.1893090E-003  0.1040120E+03  0.7546771E-02  0.1272120E+00
         -2   -1    0    0    0  501 -0.00000000000E+00  0.00000000000E+00  0.30945580820E+03  0.30945580820E+03  0.00000000000E+00 0.  1.
          2   -1    0    0  501    0  0.00000000000E+00 -0.00000000000E+00 -0.36414515085E+02  0.36414515085E+02  0.00000000000E+00 0. -1.
         23    2    1    2    0    0 -0.49643941234E+02 -0.37915578155E+00  0.17146655126E+03  0.20054745995E+03  0.91399348084E+02 0.  0.
         23    2    1    2    0    0  0.49643941234E+02  0.37915578155E+00  0.10157474186E+03  0.14532286334E+03  0.91305212147E+02 0.  0.
          5    1    3    3  502    0 -0.38114940353E+02 -0.42341780776E+02  0.72434271919E+02  0.92273445941E+02  0.47000000000E+01 0. -1.
         -5    1    4    4    0  503 -0.12021395243E+02 -0.26371705009E+02  0.58202096512E+02  0.65188609489E+02  0.47000000000E+01 0.  1.
          5    1    4    4  503    0  0.61665336478E+02  0.26750860790E+02  0.43372645346E+02  0.80134253851E+02  0.47000000000E+01 0. -1.
         -5    1    3    3    0  502 -0.11529000881E+02  0.41962624994E+02  0.99032279342E+02  0.10827401401E+03  0.47000000000E+01 0.  1.
<mgrwt>
<rscale>  0 0.10399136E+03</rscale>
<asrwt>0</asrwt>
<pdfrwt beam="1">  1        2 0.56022333E-02 0.10401204E+03</pdfrwt>
<pdfrwt beam="2">  1       -2 0.47608584E-01 0.10401204E+03</pdfrwt>
<totfact> 0.53095768E+03</totfact>
</mgrwt>
</event>
<event>
 8    1  0.1893090E-003  0.9580040E+02  0.7546771E-02  0.1290053E+00
         -1   -1    0    0    0  501 -0.00000000000E+00  0.00000000000E+00  0.81412096094E+02  0.81412096094E+02  0.00000000000E+00 0.  1.
          1   -1    0    0  501    0  0.00000000000E+00 -0.00000000000E+00 -0.11347565104E+03  0.11347565104E+03  0.00000000000E+00 0. -1.
         23    2    1    2    0    0  0.14423474580E+02  0.19114260597E+02 -0.29331081375E+02  0.99048384801E+02  0.91525289510E+02 0.  0.
         23    2    1    2    0    0 -0.14423474580E+02 -0.19114260597E+02 -0.27324735753E+01  0.95839362338E+02  0.92759502933E+02 0.  0.
          5    1    4    4  502    0  0.29062524168E+01  0.36613057775E+02 -0.42516216949E+01  0.37271015411E+02  0.47000000000E+01 0. -1.
         -5    1    4    4    0  502 -0.17329726997E+02 -0.55727318372E+02  0.15191481196E+01  0.58568346927E+02  0.47000000000E+01 0.  1.
          5    1    3    3  503    0  0.42408225311E+02  0.40683574468E+02 -0.18867707920E+02  0.61900655956E+02  0.47000000000E+01 0. -1.
         -5    1    3    3    0  503 -0.27984750731E+02 -0.21569313871E+02 -0.10463373455E+02  0.37147728846E+02  0.47000000000E+01 0.  1.
<mgrwt>
<rscale>  0 0.95500362E+02</rscale>
<asrwt>0</asrwt>
<pdfrwt beam="1">  1        1 0.17457792E-01 0.95800402E+02</pdfrwt>
<pdfrwt beam="2">  1       -1 0.12524938E-01 0.95800402E+02</pdfrwt>
<totfact> 0.11843033E+04</totfact>
</mgrwt>
</event>
<event>
 8    1  0.1893090E-003  0.9686185E+02  0.7546771E-02  0.1287545E+00
          1   -1    0    0  501    0  0.00000000000E+00  0.00000000000E+00  0.75238159929E+03  0.75238159929E+03  0.00000000000E+00 0. -1.
         -1   -1    0    0    0  501 -0.00000000000E+00 -0.00000000000E+00 -0.12752475106E+02  0.12752475106E+02  0.00000000000E+00 0.  1.
         23    2    1    2    0    0  0.17721962847E+02  0.21214340199E+02  0.43935365158E+03  0.44990426672E+03  0.92833732308E+02 0.  0.
         23    2    1    2    0    0 -0.17721962847E+02 -0.21214340199E+02  0.30027547260E+03  0.31522980768E+03  0.91871410164E+02 0.  0.
          5    1    4    4  502    0  0.26621626405E+02 -0.32676995400E+02  0.83894265691E+02  0.94004440515E+02  0.47000000000E+01 0. -1.
         -5    1    4    4    0  502 -0.44343589253E+02  0.11462655201E+02  0.21638120691E+03  0.22122536716E+03  0.47000000000E+01 0.  1.
          5    1    3    3  503    0 -0.26581369809E+02  0.26768614956E+02  0.32232330899E+03  0.32455744250E+03  0.47000000000E+01 0. -1.
         -5    1    3    3    0  503  0.44303332657E+02 -0.55542747576E+01  0.11703034259E+03  0.12534682421E+03  0.47000000000E+01 0.  1.
<mgrwt>
<rscale>  0 0.96630546E+02</rscale>
<asrwt>0</asrwt>
<pdfrwt beam="1">  1        1 0.11575098E+00 0.96861850E+02</pdfrwt>
<pdfrwt beam="2">  1       -1 0.19619198E-02 0.96861850E+02</pdfrwt>
<totfact> 0.16507875E+04</totfact>
</mgrwt>
</event>
<event>
 8    1  0.1893090E-003  0.1291088E+03  0.7546771E-02  0.1237849E+00
         -1   -1    0    0    0  501 -0.00000000000E+00  0.00000000000E+00  0.31281990020E+02  0.31281990020E+02  0.00000000000E+00 0.  1.
          1   -1    0    0  501    0  0.00000000000E+00 -0.00000000000E+00 -0.45985511765E+03  0.45985511765E+03  0.00000000000E+00 0. -1.
         23    2    1    2    0    0  0.24200631075E+02  0.54054348515E+02 -0.27572991254E+03  0.30446030771E+03  0.11472380383E+03 0.  0.
         23    2    1    2    0    0 -0.24200631075E+02 -0.54054348515E+02 -0.15284321509E+03  0.18667679996E+03  0.89328808933E+02 0.  0.
          5    1    4    4  502    0  0.11478088009E+02  0.20397698953E+02 -0.26391125352E+02  0.35586431744E+02  0.47000000000E+01 0. -1.
         -5    1    3    3    0  503  0.25667423436E+02 -0.27035320985E+02 -0.38896816637E+02  0.54081212552E+02  0.47000000000E+01 0.  1.
          5    1    3    3  503    0 -0.14667923607E+01  0.81089669500E+02 -0.23683309590E+03  0.25037909516E+03  0.47000000000E+01 0. -1.
         -5    1    4    4    0  502 -0.35678719084E+02 -0.74452047468E+02 -0.12645208974E+03  0.15109036822E+03  0.47000000000E+01 0.  1.
<mgrwt>
<rscale>  0 0.12323773E+03</rscale>
<asrwt>0</asrwt>
<pdfrwt beam="1">  1        1 0.70746941E-01 0.12910885E+03</pdfrwt>
<pdfrwt beam="2">  1       -1 0.48126138E-02 0.12910885E+03</pdfrwt>
<totfact> 0.89361623E+03</totfact>
</mgrwt>
</event>
<event>
 8    1  0.1893090E-003  0.1141274E+03  0.7546771E-02  0.1253336E+00
          2   -1    0    0  501    0  0.00000000000E+00  0.00000000000E+00  0.95562845753E+03  0.95562845753E+03  0.00000000000E+00 0. -1.
         -2   -1    0    0    0  501 -0.00000000000E+00 -0.00000000000E+00 -0.45727372711E+02  0.45727372711E+02  0.00000000000E+00 0.  1.
         23    2    1    2    0    0  0.63879439169E+02  0.28741967791E+02  0.35381435064E+02  0.11948603790E+03  0.90102074588E+02 0.  0.
         23    2    1    2    0    0 -0.63879439169E+02 -0.28741967791E+02  0.87451964976E+03  0.88186979234E+03  0.89459652205E+02 0.  0.
          5    1    4    4  502    0 -0.77406312267E+02 -0.59378182553E+01  0.77071542586E+03  0.77462981644E+03  0.47000000000E+01 0. -1.
         -5    1    4    4    0  502  0.13526873098E+02 -0.22804149536E+02  0.10380422390E+03  0.10723997590E+03  0.47000000000E+01 0.  1.
          5    1    3    3  503    0 -0.38115147316E+00  0.30909555559E+02  0.44488748207E+02  0.54377243571E+02  0.47000000000E+01 0. -1.
         -5    1    3    3    0  503  0.64260590642E+02 -0.21675877684E+01 -0.91073131437E+01  0.65108794330E+02  0.47000000000E+01 0.  1.
<mgrwt>
<rscale>  0 0.11400058E+03</rscale>
<asrwt>0</asrwt>
<pdfrwt beam="1">  1        2 0.14701975E+00 0.11412742E+03</pdfrwt>
<pdfrwt beam="2">  1       -2 0.70349812E-02 0.11412742E+03</pdfrwt>
<totfact> 0.31654840E+03</totfact>
</mgrwt>
</event>
<event>
 8    1  0.1893090E-003  0.1040606E+03  0.7546771E-02  0.1274563E+00
         -1   -1    0    0    0  501 -0.00000000000E+00  0.00000000000E+00  0.64322624722E+02  0.64322624722E+02  0.00000000000E+00 0.  1.
          1   -1    0    0  501    0  0.00000000000E+00 -0.00000000000E+00 -0.82334132948E+03  0.82334132948E+03  0.00000000000E+00 0. -1.
         23    2    1    2    0    0  0.16382624891E+02 -0.45822044329E+02  0.20593210369E+02  0.10113782347E+03  0.86236470701E+02 0.  0.
         23    2    1    2    0    0 -0.16382624891E+02  0.45822044329E+02 -0.77961191513E+03  0.78652613073E+03  0.91981334869E+02 0.  0.
          5    1    3    3  502    0 -0.14890253985E+02  0.16770338217E+02 -0.95266149727E+01  0.24815525392E+02  0.47000000000E+01 0. -1.
         -5    1    3    3    0  502  0.31272878876E+02 -0.62592382546E+02  0.30119825342E+02  0.76322298082E+02  0.47000000000E+01 0.  1.
          5    1    4    4  503    0 -0.52767874849E+02  0.40860604539E+02 -0.48239809987E+03  0.48701545599E+03  0.47000000000E+01 0. -1.
         -5    1    4    4    0  503  0.36385249958E+02  0.49614397896E+01 -0.29721381526E+03  0.29951067473E+03  0.47000000000E+01 0.  1.
<mgrwt>
<rscale>  0 0.10277668E+03</rscale>
<asrwt>0</asrwt>
<pdfrwt beam="1">  1        1 0.12666788E+00 0.10406064E+03</pdfrwt>
<pdfrwt beam="2">  1       -1 0.98957899E-02 0.10406064E+03</pdfrwt>
<totfact> 0.13558122E+03</totfact>
</mgrwt>
</event>
<event>
 8    1  0.1893090E-003  0.1003128E+03  0.7546771E-02  0.1283204E+00
         -1   -1    0    0    0  501 -0.00000000000E+00  0.00000000000E+00  0.20105954284E+02  0.20105954284E+02  0.00000000000E+00 0.  1.
          1   -1    0    0  501    0  0.00000000000E+00 -0.00000000000E+00 -0.46965647047E+03  0.46965647047E+03  0.00000000000E+00 0. -1.
         23    2    1    2    0    0 -0.18813983105E+02 -0.10693520336E+02 -0.24569158872E+03  0.26538088545E+03  0.97950703205E+02 0.  0.
         23    2    1    2    0    0  0.18813983105E+02  0.10693520336E+02 -0.20385892747E+03  0.22438153931E+03  0.91215653998E+02 0.  0.
          5    1    3    3  502    0 -0.14782020637E+02 -0.32548385356E+02 -0.25839619197E+02  0.44358555473E+02  0.47000000000E+01 0. -1.
         -5    1    3    3    0  502 -0.40319624677E+01  0.21854865020E+02 -0.21985196952E+03  0.22102232998E+03  0.47000000000E+01 0.  1.
          5    1    4    4  503    0  0.37521592780E+02 -0.22291792012E+02 -0.16138793119E+03  0.16725115321E+03  0.47000000000E+01 0. -1.
         -5    1    4    4    0  503 -0.18707609675E+02  0.32985312348E+02 -0.42470996278E+02  0.57130386094E+02  0.47000000000E+01 0.  1.
<mgrwt>
<rscale>  0 0.98629607E+02</rscale>
<asrwt>0</asrwt>
<pdfrwt beam="1">  1        1 0.72254840E-01 0.10031280E+03</pdfrwt>
<pdfrwt beam="2">  1       -1 0.30932238E-02 0.10031280E+03</pdfrwt>
<totfact> 0.16249112E+04</totfact>
</mgrwt>
</event>
<event>
 8    1  0.1893090E-003  0.9491552E+02  0.7546771E-02  0.1292015E+00
          1   -1    0    0  501    0  0.00000000000E+00  0.00000000000E+00  0.11294183695E+03  0.11294183695E+03  0.00000000000E+00 0. -1.
         -1   -1    0    0    0  501 -0.00000000000E+00 -0.00000000000E+00 -0.10042560124E+03  0.10042560124E+03  0.00000000000E+00 0.  1.
         23    2    1    2    0    0 -0.22381802742E+02 -0.48682351150E+01  0.55782729019E+02  0.11009391076E+03  0.92110322565E+02 0.  0.
         23    2    1    2    0    0  0.22381802742E+02  0.48682351150E+01 -0.43266493309E+02  0.10327352742E+03  0.90932872030E+02 0.  0.
          5    1    4    4  502    0 -0.93548364045E+01  0.29605501808E+02 -0.53003811261E+02  0.61607570230E+02  0.47000000000E+01 0. -1.
         -5    1    4    4    0  502  0.31736639146E+02 -0.24737266693E+02  0.97373179523E+01  0.41665957191E+02  0.47000000000E+01 0.  1.
          5    1    3    3  503    0  0.28881949349E+02  0.10699650600E+01  0.50012027976E+02  0.57953470696E+02  0.47000000000E+01 0. -1.
         -5    1    3    3    0  503 -0.51263752091E+02 -0.59382001750E+01  0.57707010427E+01  0.52140440066E+02  0.47000000000E+01 0.  1.
<mgrwt>
<rscale>  0 0.94628669E+02</rscale>
<asrwt>0</asrwt>
<pdfrwt beam="1">  1        1 0.17375667E-01 0.94915522E+02</pdfrwt>
<pdfrwt beam="2">  1       -1 0.15450092E-01 0.94915522E+02</pdfrwt>
<totfact> 0.86090104E+03</totfact>
</mgrwt>
</event>
<event>
 8    1  0.1893090E-003  0.1018991E+03  0.7546771E-02  0.1276841E+00
         -2   -1    0    0    0  501 -0.00000000000E+00  0.00000000000E+00  0.37357452828E+02  0.37357452828E+02  0.00000000000E+00 0.  1.
          2   -1    0    0  501    0  0.00000000000E+00 -0.00000000000E+00 -0.42045397989E+03  0.42045397989E+03  0.00000000000E+00 0. -1.
         23    2    1    2    0    0  0.26094586030E+02  0.37595760034E+02 -0.57669896323E+02  0.11708649335E+03  0.91044282574E+02 0.  0.
         23    2    1    2    0    0 -0.26094586030E+02 -0.37595760034E+02 -0.32542663074E+03  0.34072493938E+03  0.89981240955E+02 0.  0.
          5    1    4    4  502    0 -0.47992435172E+02 -0.14408605231E+02 -0.28299877354E+03  0.28743917193E+03  0.47000000000E+01 0. -1.
         -5    1    4    4    0  502  0.21897849142E+02 -0.23187154803E+02 -0.42427857207E+02  0.53285767444E+02  0.47000000000E+01 0.  1.
          5    1    3    3  503    0 -0.23805181783E+02  0.73890189415E+01 -0.52540402492E+02  0.58342678844E+02  0.47000000000E+01 0. -1.
         -5    1    3    3    0  503  0.49899767813E+02  0.30206741093E+02 -0.51294938313E+01  0.58743814502E+02  0.47000000000E+01 0.  1.
<mgrwt>
<rscale>  0 0.10166112E+03</rscale>
<asrwt>0</asrwt>
<pdfrwt beam="1">  1        2 0.64685231E-01 0.10189912E+03</pdfrwt>
<pdfrwt beam="2">  1       -2 0.57473001E-02 0.10189912E+03</pdfrwt>
<totfact> 0.11075527E+04</totfact>
</mgrwt>
</event>
<event>
 8    1  0.1893090E-003  0.1045418E+03  0.7546771E-02  0.1273238E+00
         -2   -1    0    0    0  501 -0.00000000000E+00  0.00000000000E+00  0.10295138867E+03  0.10295138867E+03  0.00000000000E+00 0.  1.
          2   -1    0    0  501    0  0.00000000000E+00 -0.00000000000E+00 -0.17831159708E+03  0.17831159708E+03  0.00000000000E+00 0. -1.
         23    2    1    2    0    0 -0.27013858366E+02  0.70975984203E+01  0.54904163839E+02  0.11423662558E+03  0.96205067274E+02 0.  0.
         23    2    1    2    0    0  0.27013858366E+02 -0.70975984203E+01 -0.13026437225E+03  0.16702636017E+03  0.10074161934E+03 0.  0.
          5    1    4    4  502    0 -0.35158218371E+02 -0.10508296776E+02 -0.75053052756E+02  0.83675416629E+02  0.47000000000E+01 0. -1.
         -5    1    4    4    0  502  0.62172076737E+02  0.34106983558E+01 -0.55211319489E+02  0.83350943538E+02  0.47000000000E+01 0.  1.
          5    1    3    3  503    0 -0.18684949851E+02 -0.30267226051E+02  0.65108716570E+02  0.74340213190E+02  0.47000000000E+01 0. -1.
         -5    1    3    3    0  503 -0.83289085150E+01  0.37364824471E+02 -0.10204552732E+02  0.39896412386E+02  0.47000000000E+01 0.  1.
<mgrwt>
<rscale>  0 0.10343326E+03</rscale>
<asrwt>0</asrwt>
<pdfrwt beam="1">  1        2 0.27432553E-01 0.10454185E+03</pdfrwt>
<pdfrwt beam="2">  1       -2 0.15838675E-01 0.10454185E+03</pdfrwt>
<totfact> 0.56678367E+03</totfact>
</mgrwt>
</event>
<event>
 8    1  0.1893090E-003  0.1120864E+03  0.7546771E-02  0.1256936E+00
          2   -1    0    0  501    0  0.00000000000E+00  0.00000000000E+00  0.86786836840E+03  0.86786836840E+03  0.00000000000E+00 0. -1.
         -2   -1    0    0    0  501 -0.00000000000E+00 -0.00000000000E+00 -0.14668789852E+02  0.14668789852E+02  0.00000000000E+00 0.  1.
         23    2    1    2    0    0 -0.69768841292E+02 -0.34218806890E+01  0.48430750008E+03  0.49710874646E+03  0.87658146729E+02 0.  0.
         23    2    1    2    0    0  0.69768841292E+02  0.34218806890E+01  0.36889207846E+03  0.38542841179E+03  0.87145249895E+02 0.  0.
          5    1    3    3  502    0 -0.80618184957E+02 -0.27187910402E+02  0.38482287150E+03  0.39414363708E+03  0.47000000000E+01 0. -1.
         -5    1    3    3    0  502  0.10849343665E+02  0.23766029713E+02  0.99484628579E+02  0.10296510938E+03  0.47000000000E+01 0.  1.
          5    1    4    4  503    0  0.20224279489E+02 -0.37949436221E+02  0.10184265051E+03  0.11064897945E+03  0.47000000000E+01 0. -1.
         -5    1    4    4    0  503  0.49544561803E+02  0.41371316910E+02  0.26704942795E+03  0.27477943234E+03  0.47000000000E+01 0.  1.
<mgrwt>
<rscale>  0 0.11198606E+03</rscale>
<asrwt>0</asrwt>
<pdfrwt beam="1">  1        2 0.13351817E+00 0.11208636E+03</pdfrwt>
<pdfrwt beam="2">  1       -2 0.22567376E-02 0.11208636E+03</pdfrwt>
<totfact> 0.19321449E+04</totfact>
</mgrwt>
</event>
<event>
 8    1  0.1893090E-003  0.1094523E+03  0.7546771E-02  0.1262448E+00
         -2   -1    0    0    0  501 -0.00000000000E+00  0.00000000000E+00  0.33097033296E+02  0.33097033296E+02  0.00000000000E+00 0.  1.
          2   -1    0    0  501    0  0.00000000000E+00 -0.00000000000E+00 -0.36315257503E+03  0.36315257503E+03  0.00000000000E+00 0. -1.
         23    2    1    2    0    0  0.43350191995E+02  0.37591378536E+02 -0.13846133503E+03  0.17649741921E+03  0.93206474046E+02 0.  0.
         23    2    1    2    0    0 -0.43350191995E+02 -0.37591378536E+02 -0.19159420671E+03  0.21975218912E+03  0.91051269577E+02 0.  0.
          5    1    3    3  502    0  0.28585764833E+02 -0.62633462862E+01 -0.12443633915E+03  0.12791742633E+03  0.47000000000E+01 0. -1.
         -5    1    3    3    0  502  0.14764427162E+02  0.43854724822E+02 -0.14024995873E+02  0.48579992876E+02  0.47000000000E+01 0.  1.
          5    1    4    4  503    0 -0.58572953389E+02  0.76525590294E+01 -0.11520327932E+03  0.12955013738E+03  0.47000000000E+01 0. -1.
         -5    1    4    4    0  503  0.15222761394E+02 -0.45243937565E+02 -0.76390927383E+02  0.90202051736E+02  0.47000000000E+01 0.  1.
<mgrwt>
<rscale>  0 0.10899202E+03</rscale>
<asrwt>0</asrwt>
<pdfrwt beam="1">  1        2 0.55869626E-01 0.10945226E+03</pdfrwt>
<pdfrwt beam="2">  1       -2 0.50918513E-02 0.10945226E+03</pdfrwt>
<totfact> 0.15600515E+04</totfact>
</mgrwt>
</event>
<event>
 8    1  0.1893090E-003  0.9869166E+02  0.7546771E-02  0.1285204E+00
         -2   -1    0    0    0  501 -0.00000000000E+00  0.00000000000E+00  0.72917151943E+02  0.72917151943E+02  0.00000000000E+00 0.  1.
          2   -1    0    0  501    0  0.00000000000E+00 -0.00000000000E+00 -0.85129436907E+03  0.85129436907E+03  0.00000000000E+00 0. -1.
         23    2    1    2    0    0 -0.26395203836E+02  0.99017853650E+01  0.37827654341E+02  0.10206163468E+03  0.90503556293E+02 0.  0.
         23    2    1    2    0    0  0.26395203836E+02 -0.99017853650E+01 -0.81620487147E+03  0.82214988634E+03  0.94579549861E+02 0.  0.
          5    1    3    3  502    0  0.32329294350E+02  0.11525902036E+02  0.62559542416E+01  0.35203077342E+02  0.47000000000E+01 0. -1.
         -5    1    4    4    0  503  0.78377317703E+01  0.41909059423E+02 -0.40088094217E+03  0.40316921894E+03  0.47000000000E+01 0.  1.
          5    1    4    4  503    0  0.18557472066E+02 -0.51810844788E+02 -0.41532392930E+03  0.41898066740E+03  0.47000000000E+01 0. -1.
         -5    1    3    3    0  502 -0.58724498186E+02 -0.16241166710E+01  0.31571700099E+02  0.66858557338E+02  0.47000000000E+01 0.  1.
<mgrwt>
<rscale>  0 0.97702122E+02</rscale>
<asrwt>0</asrwt>
<pdfrwt beam="1">  1        2 0.13096836E+00 0.98691658E+02</pdfrwt>
<pdfrwt beam="2">  1       -2 0.11218023E-01 0.98691658E+02</pdfrwt>
<totfact> 0.17789856E+03</totfact>
</mgrwt>
</event>
<event>
 8    1  0.1893090E-003  0.2131267E+03  0.7546771E-02  0.1139259E+00
         -1   -1    0    0    0  501 -0.00000000000E+00  0.00000000000E+00  0.11667220352E+03  0.11667220352E+03  0.00000000000E+00 0.  1.
          1   -1    0    0  501    0  0.00000000000E+00 -0.00000000000E+00 -0.40424045188E+03  0.40424045188E+03  0.00000000000E+00 0. -1.
         23    2    1    2    0    0 -0.29595605754E+02  0.19014469074E+03 -0.91265401524E+02  0.23115794704E+03  0.89853879558E+02 0.  0.
         23    2    1    2    0    0  0.29595605754E+02 -0.19014469074E+03 -0.19630284684E+03  0.28975470835E+03  0.91608296784E+02 0.  0.
          5    1    4    4  502    0  0.46713355357E+02 -0.17967141323E+03 -0.19473137364E+03  0.26908428452E+03  0.47000000000E+01 0. -1.
         -5    1    4    4    0  502 -0.17117749602E+02 -0.10473277510E+02 -0.15714732048E+01  0.20670423830E+02  0.47000000000E+01 0.  1.
          5    1    3    3  503    0  0.15921372716E+02  0.56335866189E+02 -0.64496087906E+02  0.87229899024E+02  0.47000000000E+01 0. -1.
         -5    1    3    3    0  503 -0.45516978471E+02  0.13380882455E+03 -0.26769313617E+02  0.14392804802E+03  0.47000000000E+01 0.  1.
<mgrwt>
<rscale>  0 0.21293939E+03</rscale>
<asrwt>0</asrwt>
<pdfrwt beam="1">  1        1 0.62190838E-01 0.21312668E+03</pdfrwt>
<pdfrwt beam="2">  1       -1 0.17949570E-01 0.21312668E+03</pdfrwt>
<totfact> 0.14324905E+03</totfact>
</mgrwt>
</event>
<event>
 8    1  0.1893090E-003  0.1129225E+03  0.7546771E-02  0.1256403E+00
          2   -1    0    0  501    0  0.00000000000E+00  0.00000000000E+00  0.60853652949E+03  0.60853652949E+03  0.00000000000E+00 0. -1.
         -2   -1    0    0    0  501 -0.00000000000E+00 -0.00000000000E+00 -0.35837131947E+02  0.35837131947E+02  0.00000000000E+00 0.  1.
         23    2    1    2    0    0  0.40088028066E+02 -0.49790215250E+02  0.77346291619E+02  0.13687197856E+03  0.93087991486E+02 0.  0.
         23    2    1    2    0    0 -0.40088028066E+02  0.49790215250E+02  0.49535310592E+03  0.50750168287E+03  0.89984126633E+02 0.  0.
          5    1    3    3  502    0 -0.21633430875E+02 -0.40404422685E+02  0.51605969362E+02  0.69179395616E+02  0.47000000000E+01 0. -1.
         -5    1    3    3    0  502  0.61721458941E+02 -0.93857925645E+01  0.25740322256E+02  0.67692582944E+02  0.47000000000E+01 0.  1.
          5    1    4    4  503    0 -0.40399282314E+02  0.74434395223E+02  0.40073055542E+03  0.40960914205E+03  0.47000000000E+01 0. -1.
         -5    1    4    4    0  503  0.31125424816E+00 -0.24644179973E+02  0.94622550499E+02  0.97892540823E+02  0.47000000000E+01 0.  1.
<mgrwt>
<rscale>  0 0.11228087E+03</rscale>
<asrwt>0</asrwt>
<pdfrwt beam="1">  1        2 0.93620997E-01 0.11292249E+03</pdfrwt>
<pdfrwt beam="2">  1       -2 0.55134053E-02 0.11292249E+03</pdfrwt>
<totfact> 0.79310869E+03</totfact>
</mgrwt>
</event>
<event>
 8    1  0.1893090E-003  0.1018138E+03  0.7546771E-02  0.1279197E+00
          1   -1    0    0  501    0  0.00000000000E+00  0.00000000000E+00  0.47289174507E+03  0.47289174507E+03  0.00000000000E+00 0. -1.
         -1   -1    0    0    0  501 -0.00000000000E+00 -0.00000000000E+00 -0.30311489300E+02  0.30311489300E+02  0.00000000000E+00 0.  1.
         23    2    1    2    0    0 -0.23207521374E+02 -0.17162146729E+02  0.84590743730E+02  0.13236931329E+03  0.97636636816E+02 0.  0.
         23    2    1    2    0    0  0.23207521374E+02  0.17162146729E+02  0.35798951204E+03  0.37083392107E+03  0.92348134581E+02 0.  0.
          5    1    3    3  502    0 -0.58559218315E+02 -0.55762038997E+01  0.71375530068E+02  0.92611189346E+02  0.47000000000E+01 0. -1.
         -5    1    3    3    0  502  0.35351696941E+02 -0.11585942829E+02  0.13215213662E+02  0.39758123949E+02  0.47000000000E+01 0.  1.
          5    1    4    4  503    0  0.51892660538E+02  0.48055193096E+01  0.12210948991E+03  0.13284863100E+03  0.47000000000E+01 0. -1.
         -5    1    4    4    0  503 -0.28685139164E+02  0.12356627419E+02  0.23588002213E+03  0.23798529007E+03  0.47000000000E+01 0.  1.
<mgrwt>
<rscale>  0 0.10052450E+03</rscale>
<asrwt>0</asrwt>
<pdfrwt beam="1">  1        1 0.72752571E-01 0.10181376E+03</pdfrwt>
<pdfrwt beam="2">  1       -1 0.46633064E-02 0.10181376E+03</pdfrwt>
<totfact> 0.88766837E+03</totfact>
</mgrwt>
</event>
<event>
 7    1  0.1893090E-003  0.1458328E+03  0.7546771E-02  0.1226542E+00
          1   -1    0    0  501    0  0.00000000000E+00  0.00000000000E+00  0.32024679379E+03  0.32024679379E+03  0.00000000000E+00 0. -1.
         -1   -1    0    0    0  501 -0.00000000000E+00 -0.00000000000E+00 -0.47844858149E+02  0.47844858149E+02  0.00000000000E+00 0.  1.
         23    2    1    2    0    0 -0.62737622113E+00 -0.14687185485E+02  0.15355364807E+03  0.17996375024E+03  0.92693697442E+02 0.  0.
          5    1    1    2  502    0  0.38710880282E+02 -0.20865628817E+02  0.12763835139E+03  0.13508347591E+03  0.47000000000E+01 0. -1.
         -5    1    3    3    0  503 -0.32234651852E+02  0.22023644250E+02  0.38464627340E+02  0.55006647257E+02  0.47000000000E+01 0.  1.
          5    1    3    3  503    0  0.31607275631E+02 -0.36710829734E+02  0.11508902073E+03  0.12495710298E+03  0.47000000000E+01 0. -1.
         -5    1    1    2    0  502 -0.38083504061E+02  0.35552814302E+02 -0.87900638151E+01  0.53044425797E+02  0.47000000000E+01 0.  1.
<mgrwt>
<rscale>  0 0.13061780E+03</rscale>
<asrwt>0</asrwt>
<pdfrwt beam="1">  1        1 0.49268736E-01 0.14583275E+03</pdfrwt>
<pdfrwt beam="2">  1       -1 0.73607476E-02 0.14583275E+03</pdfrwt>
<totfact> 0.75433162E+03</totfact>
</mgrwt>
</event>
<event>
 8    1  0.1893090E-003  0.2420646E+03  0.7546771E-02  0.1121203E+00
          1   -1    0    0  501    0  0.00000000000E+00  0.00000000000E+00  0.14674632058E+04  0.14674632058E+04  0.00000000000E+00 0. -1.
         -1   -1    0    0    0  501 -0.00000000000E+00 -0.00000000000E+00 -0.38554608110E+02  0.38554608110E+02  0.00000000000E+00 0.  1.
         23    2    1    2    0    0  0.35571645834E+02 -0.20352748714E+03  0.60237722359E+03  0.64919457062E+03  0.12612093804E+03 0.  0.
         23    2    1    2    0    0 -0.35571645834E+02  0.20352748714E+03  0.82653137412E+03  0.85682324331E+03  0.91121774922E+02 0.  0.
          5    1    4    4  502    0 -0.54724343194E+02  0.17297696930E+03  0.58309987497E+03  0.61069087093E+03  0.47000000000E+01 0. -1.
         -5    1    4    4    0  502  0.19152697361E+02  0.30550517845E+02  0.24343149915E+03  0.24613237238E+03  0.47000000000E+01 0.  1.
          5    1    3    3  503    0 -0.24614167017E+02 -0.17226331577E+03  0.43483678236E+03  0.46838619159E+03  0.47000000000E+01 0. -1.
         -5    1    3    3    0  503  0.60185812851E+02 -0.31264171373E+02  0.16754044123E+03  0.18080837903E+03  0.47000000000E+01 0. -1.
<mgrwt>
<rscale>  0 0.23789547E+03</rscale>
<asrwt>0</asrwt>
<pdfrwt beam="1">  1        1 0.22576353E+00 0.24206460E+03</pdfrwt>
<pdfrwt beam="2">  1       -1 0.59314793E-02 0.24206460E+03</pdfrwt>
<totfact> 0.10251059E+03</totfact>
</mgrwt>
</event>
<event>
 8    1  0.1893090E-003  0.1173079E+03  0.7546771E-02  0.1247668E+00
          1   -1    0    0  501    0  0.00000000000E+00  0.00000000000E+00  0.18545587492E+03  0.18545587492E+03  0.00000000000E+00 0. -1.
         -1   -1    0    0    0  501 -0.00000000000E+00 -0.00000000000E+00 -0.97513960888E+02  0.97513960888E+02  0.00000000000E+00 0.  1.
         23    2    1    2    0    0  0.29362082558E+01  0.71496895773E+02 -0.25323424471E+02  0.12001007043E+03  0.92955439609E+02 0.  0.
         23    2    1    2    0    0 -0.29362082558E+01 -0.71496895773E+02  0.11326533851E+03  0.16295976538E+03  0.92770797144E+02 0.  0.
          5    1    3    3  502    0  0.32191059010E+02  0.30746899144E+02  0.22888780482E+02  0.50275464783E+02  0.47000000000E+01 0. -1.
         -5    1    4    4    0  503 -0.19657997940E+02 -0.15265564261E+02 -0.93114730063E+01  0.26986438534E+02  0.47000000000E+01 0.  1.
          5    1    4    4  503    0  0.16721789684E+02 -0.56231331512E+02  0.12257681151E+03  0.13597332685E+03  0.47000000000E+01 0. -1.
         -5    1    3    3    0  502 -0.29254850754E+02  0.40749996629E+02 -0.48212204954E+02  0.69734605644E+02  0.47000000000E+01 0.  1.
<mgrwt>
<rscale>  0 0.11727131E+03</rscale>
<asrwt>0</asrwt>
<pdfrwt beam="1">  1        1 0.28531673E-01 0.11730789E+03</pdfrwt>
<pdfrwt beam="2">  1       -1 0.15002148E-01 0.11730789E+03</pdfrwt>
<totfact> 0.49174544E+03</totfact>
</mgrwt>
</event>
<event>
 8    1  0.1893090E-003  0.1095251E+03  0.7546771E-02  0.1262617E+00
         -1   -1    0    0    0  501 -0.00000000000E+00  0.00000000000E+00  0.56038448736E+02  0.56038448736E+02  0.00000000000E+00 0.  1.
          1   -1    0    0  501    0  0.00000000000E+00 -0.00000000000E+00 -0.22156278457E+03  0.22156278457E+03  0.00000000000E+00 0. -1.
         23    2    1    2    0    0  0.54405924762E+02 -0.17454073554E+02 -0.50949442582E+02  0.12079564204E+03  0.93440313055E+02 0.  0.
         23    2    1    2    0    0 -0.54405924762E+02  0.17454073554E+02 -0.11457489325E+03  0.15680559126E+03  0.90531419714E+02 0.  0.
          5    1    4    4  502    0 -0.50936589025E+02  0.49517420989E+02 -0.95247176940E+02  0.11891436330E+03  0.47000000000E+01 0. -1.
         -5    1    4    4    0  502 -0.34693357370E+01 -0.32063347435E+02 -0.19327716310E+02  0.37891227968E+02  0.47000000000E+01 0.  1.
          5    1    3    3  503    0  0.27253031137E+02  0.63952204978E+01 -0.72914144818E+02  0.78244418753E+02  0.47000000000E+01 0. -1.
         -5    1    3    3    0  503  0.27152893625E+02 -0.23849294052E+02  0.21964702236E+02  0.42551223288E+02  0.47000000000E+01 0.  1.
<mgrwt>
<rscale>  0 0.10890204E+03</rscale>
<asrwt>0</asrwt>
<pdfrwt beam="1">  1        1 0.34086582E-01 0.10952507E+03</pdfrwt>
<pdfrwt beam="2">  1       -1 0.86212998E-02 0.10952507E+03</pdfrwt>
<totfact> 0.91751175E+03</totfact>
</mgrwt>
</event>
<event>
 8    1  0.1893090E-003  0.9600666E+02  0.7546771E-02  0.1291010E+00
         -2   -1    0    0    0  501 -0.00000000000E+00  0.00000000000E+00  0.17292251018E+03  0.17292251018E+03  0.00000000000E+00 0.  1.
          2   -1    0    0  501    0  0.00000000000E+00 -0.00000000000E+00 -0.83456336982E+02  0.83456336982E+02  0.00000000000E+00 0. -1.
         23    2    1    2    0    0  0.23590518463E+02 -0.97636335927E+01 -0.34315419166E+02  0.10195502676E+03  0.92549653624E+02 0.  0.
         23    2    1    2    0    0 -0.23590518463E+02  0.97636335927E+01  0.12378159237E+03  0.15442382041E+03  0.88729885601E+02 0.  0.
          5    1    3    3  502    0  0.45915860933E+02  0.15938396086E+02 -0.44547027097E+02  0.66097098108E+02  0.47000000000E+01 0. -1.
         -5    1    4    4    0  503 -0.50173291882E+02 -0.17669276718E+02  0.79282556234E+02  0.95589624338E+02  0.47000000000E+01 0.  1.
          5    1    4    4  503    0  0.26582773419E+02  0.27432910311E+02  0.44499036133E+02  0.58834196072E+02  0.47000000000E+01 0. -1.
         -5    1    3    3    0  502 -0.22325342470E+02 -0.25702029679E+02  0.10231607931E+02  0.35857928648E+02  0.47000000000E+01 0.  1.
<mgrwt>
<rscale>  0 0.95074002E+02</rscale>
<asrwt>0</asrwt>
<pdfrwt beam="1">  1        2 0.12839437E-01 0.96006664E+02</pdfrwt>
<pdfrwt beam="2">  1       -2 0.26603463E-01 0.96006664E+02</pdfrwt>
<totfact> 0.55347655E+03</totfact>
</mgrwt>
</event>
<event>
 8    1  0.1893090E-003  0.1252638E+03  0.7546771E-02  0.1236107E+00
         -4   -1    0    0    0  501 -0.00000000000E+00  0.00000000000E+00  0.13278821512E+03  0.13278821512E+03  0.00000000000E+00 0.  1.
          4   -1    0    0  501    0  0.00000000000E+00 -0.00000000000E+00 -0.14244130121E+03  0.14244130121E+03  0.00000000000E+00 0. -1.
         23    2    1    2    0    0 -0.26414606695E+02 -0.76289551832E+02 -0.65453156345E+02  0.13809936296E+03  0.90936742904E+02 0.  0.
         23    2    1    2    0    0  0.26414606695E+02  0.76289551832E+02  0.55800070255E+02  0.13713015337E+03  0.95776844584E+02 0.  0.
          5    1    3    3  502    0  0.22481059040E+02 -0.56210132564E+02 -0.58960815844E+02  0.84637136196E+02  0.47000000000E+01 0. -1.
         -5    1    4    4    0  503 -0.13109659112E+02  0.81183023590E+02  0.23551581899E+02  0.85669793342E+02  0.47000000000E+01 0.  1.
          5    1    4    4  503    0  0.39524265807E+02 -0.48934717585E+01  0.32248488356E+02  0.51460360032E+02  0.47000000000E+01 0. -1.
         -5    1    3    3    0  502 -0.48895665735E+02 -0.20079419267E+02 -0.64923405015E+01  0.53462226768E+02  0.47000000000E+01 0.  1.
<mgrwt>
<rscale>  0 0.12433846E+03</rscale>
<asrwt>0</asrwt>
<pdfrwt beam="1">  1        4 0.21914046E-01 0.12526385E+03</pdfrwt>
<pdfrwt beam="2">  1       -4 0.20428956E-01 0.12526385E+03</pdfrwt>
<totfact> 0.67517135E+02</totfact>
</mgrwt>
</event>
<event>
 8    1  0.1893090E-003  0.1595221E+03  0.7546771E-02  0.1189898E+00
         -1   -1    0    0    0  501 -0.00000000000E+00  0.00000000000E+00  0.20373015134E+03  0.20373015134E+03  0.00000000000E+00 0.  1.
          1   -1    0    0  501    0  0.00000000000E+00 -0.00000000000E+00 -0.18856724072E+03  0.18856724072E+03  0.00000000000E+00 0. -1.
         23    2    1    2    0    0 -0.24086622338E+02  0.12795640755E+03 -0.10802627466E+03  0.19074618572E+03  0.88098942890E+02 0.  0.
         23    2    1    2    0    0  0.24086622338E+02 -0.12795640755E+03  0.12318918528E+03  0.20155120635E+03  0.92164558271E+02 0.  0.
          5    1    4    4  502    0  0.40580762597E+02 -0.38564839748E+02  0.11282781935E+02  0.57301276827E+02  0.47000000000E+01 0. -1.
         -5    1    3    3    0  503 -0.40458712785E+02  0.55017478455E+02 -0.12879681539E+02  0.69654910611E+02  0.47000000000E+01 0.  1.
          5    1    3    3  503    0  0.16372090447E+02  0.72938929098E+02 -0.95146593123E+02  0.12109127510E+03  0.47000000000E+01 0. -1.
         -5    1    4    4    0  502 -0.16494140260E+02 -0.89391567805E+02  0.11190640334E+03  0.14424992952E+03  0.47000000000E+01 0.  1.
<mgrwt>
<rscale>  0 0.15894049E+03</rscale>
<asrwt>0</asrwt>
<pdfrwt beam="1">  1        1 0.29010345E-01 0.15952214E+03</pdfrwt>
<pdfrwt beam="2">  1       -1 0.31343100E-01 0.15952214E+03</pdfrwt>
<totfact> 0.14784477E+03</totfact>
</mgrwt>
</event>
<event>
 8    1  0.1893090E-003  0.9679857E+02  0.7546771E-02  0.1293119E+00
          2   -1    0    0  501    0  0.00000000000E+00  0.00000000000E+00  0.13149416157E+02  0.13149416157E+02  0.00000000000E+00 0. -1.
         -2   -1    0    0    0  501 -0.00000000000E+00 -0.00000000000E+00 -0.64512455229E+03  0.64512455229E+03  0.00000000000E+00 0.  1.
         23    2    1    2    0    0  0.13758716491E+02  0.33491491804E+02 -0.30273295350E+03  0.31783203908E+03  0.89771830908E+02 0.  0.
         23    2    1    2    0    0 -0.13758716491E+02 -0.33491491804E+02 -0.32924218263E+03  0.34044192937E+03  0.78672168827E+02 0.  0.
          5    1    3    3  502    0  0.46235403268E+02  0.42277309341E+02 -0.19725371835E+03  0.20701739734E+03  0.47000000000E+01 0.  1.
         -5    1    4    4    0  503  0.87322187168E+01  0.22296400314E+02 -0.12978469498E+03  0.13205884356E+03  0.47000000000E+01 0.  1.
          5    1    4    4  503    0 -0.22490935207E+02 -0.55787892117E+02 -0.19945748765E+03  0.20838308581E+03  0.47000000000E+01 0. -1.
         -5    1    3    3    0  502 -0.32476686777E+02 -0.87858175371E+01 -0.10547923516E+03  0.11081464174E+03  0.47000000000E+01 0. -1.
<mgrwt>
<rscale>  0 0.94142666E+02</rscale>
<asrwt>0</asrwt>
<pdfrwt beam="1">  1        2 0.20229878E-02 0.96798574E+02</pdfrwt>
<pdfrwt beam="2">  1       -2 0.99249895E-01 0.96798574E+02</pdfrwt>
<totfact> 0.43133653E+03</totfact>
</mgrwt>
</event>
<event>
 8    1  0.1893090E-003  0.1353924E+03  0.7546771E-02  0.1220457E+00
          1   -1    0    0  501    0  0.00000000000E+00  0.00000000000E+00  0.47564043710E+03  0.47564043710E+03  0.00000000000E+00 0. -1.
         -1   -1    0    0    0  501 -0.00000000000E+00 -0.00000000000E+00 -0.18953582368E+03  0.18953582368E+03  0.00000000000E+00 0.  1.
         23    2    1    2    0    0  0.89587849152E+02  0.42162467600E+02  0.44076258911E+03  0.46108866628E+03  0.92344148824E+02 0.  0.
         23    2    1    2    0    0 -0.89587849152E+02 -0.42162467600E+02 -0.15465797569E+03  0.20408759450E+03  0.89044934681E+02 0.  0.
          5    1    3    3  502    0  0.55500292386E+02 -0.36352700926E+00  0.35514961172E+03  0.35949096138E+03  0.47000000000E+01 0. -1.
         -5    1    4    4    0  503 -0.78532819855E+02 -0.60553406641E+01 -0.14459969077E+03  0.16472774968E+03  0.47000000000E+01 0.  1.
          5    1    4    4  503    0 -0.11055029297E+02 -0.36107126936E+02 -0.10058284926E+02  0.39359844817E+02  0.47000000000E+01 0. -1.
         -5    1    3    3    0  502  0.34087556766E+02  0.42525994609E+02  0.85612977392E+02  0.10159770490E+03  0.47000000000E+01 0.  1.
<mgrwt>
<rscale>  0 0.13483182E+03</rscale>
<asrwt>0</asrwt>
<pdfrwt beam="1">  1        1 0.73175451E-01 0.13539239E+03</pdfrwt>
<pdfrwt beam="2">  1       -1 0.29159358E-01 0.13539239E+03</pdfrwt>
<totfact> 0.52369057E+02</totfact>
</mgrwt>
</event>
<event>
 8    1  0.1893090E-003  0.1007891E+03  0.7546771E-02  0.1282198E+00
          1   -1    0    0  501    0  0.00000000000E+00  0.00000000000E+00  0.30578083195E+03  0.30578083195E+03  0.00000000000E+00 0. -1.
         -1   -1    0    0    0  501 -0.00000000000E+00 -0.00000000000E+00 -0.43774084523E+02  0.43774084523E+02  0.00000000000E+00 0.  1.
         23    2    1    2    0    0 -0.15406568370E+02  0.21051761538E+02  0.33803535702E+02  0.10008517420E+03  0.90519744007E+02 0.  0.
         23    2    1    2    0    0  0.15406568370E+02 -0.21051761538E+02  0.22820321173E+03  0.24946974228E+03  0.97354545130E+02 0.  0.
          5    1    4    4  502    0 -0.21230340029E+02  0.18374333377E+02  0.21097897509E+02  0.35433807925E+02  0.47000000000E+01 0. -1.
         -5    1    3    3    0  503  0.23652747779E+02  0.21649176445E+02 -0.16383811805E+02  0.36313339250E+02  0.47000000000E+01 0.  1.
          5    1    3    3  503    0 -0.39059316149E+02 -0.59741490728E+00  0.50187347507E+02  0.63771834946E+02  0.47000000000E+01 0. -1.
         -5    1    4    4    0  502  0.36636908398E+02 -0.39426094915E+02  0.20710531422E+03  0.21403593435E+03  0.47000000000E+01 0.  1.
<mgrwt>
<rscale>  0 0.99100851E+02</rscale>
<asrwt>0</asrwt>
<pdfrwt beam="1">  1        1 0.47043204E-01 0.10078912E+03</pdfrwt>
<pdfrwt beam="2">  1       -1 0.67344747E-02 0.10078912E+03</pdfrwt>
<totfact> 0.88798842E+03</totfact>
</mgrwt>
</event>
<event>
 8    1  0.1893090E-003  0.9353761E+02  0.7546771E-02  0.1296360E+00
         -2   -1    0    0    0  501 -0.00000000000E+00  0.00000000000E+00  0.43561725198E+02  0.43561725198E+02  0.00000000000E+00 0.  1.
          2   -1    0    0  501    0  0.00000000000E+00 -0.00000000000E+00 -0.19806739314E+03  0.19806739314E+03  0.00000000000E+00 0. -1.
         23    2    1    2    0    0  0.30844180890E+00  0.74434428228E+01 -0.95645671452E+02  0.13378108474E+03  0.93240464328E+02 0.  0.
         23    2    1    2    0    0 -0.30844180890E+00 -0.74434428228E+01 -0.58859996494E+02  0.10784803361E+03  0.90062196220E+02 0.  0.
          5    1    3    3  502    0 -0.37201993478E+02  0.22032551313E+02 -0.78580314604E+02  0.89813013976E+02  0.47000000000E+01 0. -1.
         -5    1    4    4    0  503  0.35976766597E+02 -0.28950954777E+02 -0.40512961440E+02  0.61610677337E+02  0.47000000000E+01 0.  1.
          5    1    4    4  503    0 -0.36285208406E+02  0.21507511954E+02 -0.18347035053E+02  0.46237356269E+02  0.47000000000E+01 0. -1.
         -5    1    3    3    0  502  0.37510435287E+02 -0.14589108490E+02 -0.17065356847E+02  0.43968070759E+02  0.47000000000E+01 0.  1.
<mgrwt>
<rscale>  0 0.92735393E+02</rscale>
<asrwt>0</asrwt>
<pdfrwt beam="1">  1        2 0.30471907E-01 0.93537608E+02</pdfrwt>
<pdfrwt beam="2">  1       -2 0.67018038E-02 0.93537608E+02</pdfrwt>
<totfact> 0.19272492E+04</totfact>
</mgrwt>
</event>
<event>
 8    1  0.1893090E-003  0.9601313E+02  0.7546771E-02  0.1289905E+00
          1   -1    0    0  501    0  0.00000000000E+00  0.00000000000E+00  0.18168908222E+03  0.18168908222E+03  0.00000000000E+00 0. -1.
         -1   -1    0    0    0  501 -0.00000000000E+00 -0.00000000000E+00 -0.15412111301E+03  0.15412111301E+03  0.00000000000E+00 0.  1.
         23    2    1    2    0    0 -0.19839230180E+02  0.19813964587E+01 -0.12430935206E+03  0.15707112066E+03  0.93920183921E+02 0.  0.
         23    2    1    2    0    0  0.19839230180E+02 -0.19813964587E+01  0.15187732127E+03  0.17873907457E+03  0.92105456287E+02 0.  0.
          5    1    4    4  502    0 -0.56852815077E+01 -0.21467034532E+02  0.14341423159E+03  0.14519947596E+03  0.47000000000E+01 0. -1.
         -5    1    3    3    0  503 -0.24963161692E+02 -0.32571152300E+02 -0.11259155616E+03  0.11992909539E+03  0.47000000000E+01 0.  1.
          5    1    3    3  503    0  0.51239315119E+01  0.34552548758E+02 -0.11717795906E+02  0.37142025264E+02  0.47000000000E+01 0. -1.
         -5    1    4    4    0  502  0.25524511688E+02  0.19485638074E+02  0.84630896783E+01  0.33539598610E+02  0.47000000000E+01 0.  1.
<mgrwt>
<rscale>  0 0.95566422E+02</rscale>
<asrwt>0</asrwt>
<pdfrwt beam="1">  1        1 0.27952166E-01 0.96013134E+02</pdfrwt>
<pdfrwt beam="2">  1       -1 0.23710941E-01 0.96013134E+02</pdfrwt>
<totfact> 0.24111024E+03</totfact>
</mgrwt>
</event>
<event>
 8    1  0.1893090E-003  0.9101407E+02  0.7546771E-02  0.1301193E+00
          2   -1    0    0  501    0  0.00000000000E+00  0.00000000000E+00  0.16257386444E+03  0.16257386444E+03  0.00000000000E+00 0. -1.
         -2   -1    0    0    0  501 -0.00000000000E+00 -0.00000000000E+00 -0.51042132253E+02  0.51042132253E+02  0.00000000000E+00 0.  1.
         23    2    1    2    0    0  0.11589016774E+02  0.34943782672E+01  0.41900496841E+02  0.99020752613E+02  0.88898491681E+02 0.  0.
         23    2    1    2    0    0 -0.11589016774E+02 -0.34943782672E+01  0.69631235344E+02  0.11459524408E+03  0.90205571006E+02 0.  0.
          5    1    3    3  502    0  0.18465192800E+02 -0.17709003501E+02  0.62882063614E+02  0.68050099739E+02  0.47000000000E+01 0. -1.
         -5    1    3    3    0  502 -0.68761760259E+01  0.21203381769E+02 -0.20981566773E+02  0.30970652874E+02  0.47000000000E+01 0.  1.
          5    1    4    4  503    0 -0.44942533977E+02  0.12665212533E+02  0.16708094417E+02  0.49814549961E+02  0.47000000000E+01 0. -1.
         -5    1    4    4    0  503  0.33353517203E+02 -0.16159590801E+02  0.52923140927E+02  0.64780694116E+02  0.47000000000E+01 0.  1.
<mgrwt>
<rscale>  0 0.90688503E+02</rscale>
<asrwt>0</asrwt>
<pdfrwt beam="1">  1        2 0.25011364E-01 0.91014071E+02</pdfrwt>
<pdfrwt beam="2">  1       -2 0.78526358E-02 0.91014071E+02</pdfrwt>
<totfact> 0.18692268E+04</totfact>
</mgrwt>
</event>
<event>
 8    1  0.1893090E-003  0.9158370E+02  0.7546771E-02  0.1308157E+00
         -4   -1    0    0    0  501 -0.00000000000E+00  0.00000000000E+00  0.44609793882E+02  0.44609793882E+02  0.00000000000E+00 0.  1.
          4   -1    0    0  501    0  0.00000000000E+00 -0.00000000000E+00 -0.22583223045E+03  0.22583223045E+03  0.00000000000E+00 0. -1.
         23    2    1    2    0    0 -0.61716013507E+00 -0.14334411116E-01 -0.15795111712E+03  0.17594796231E+03  0.77516120576E+02 0.  0.
         23    2    1    2    0    0  0.61716013507E+00  0.14334411116E-01 -0.23271319452E+02  0.94494062027E+02  0.91581615825E+02 0.  0.
          5    1    3    3  502    0  0.63803824192E+01  0.21432550684E+02 -0.79606617558E+01  0.24197637162E+02  0.47000000000E+01 0.  1.
         -5    1    3    3    0  502 -0.69975425543E+01 -0.21446885095E+02 -0.14999045536E+03  0.15175032514E+03  0.47000000000E+01 0. -1.
          5    1    4    4  503    0  0.44547264255E+02  0.23261190562E+01 -0.77472821806E+00  0.44861562459E+02  0.47000000000E+01 0. -1.
         -5    1    4    4    0  503 -0.43930104120E+02 -0.23117846451E+01 -0.22496591233E+02  0.49632499568E+02  0.47000000000E+01 0.  1.
<mgrwt>
<rscale>  0 0.87844601E+02</rscale>
<asrwt>0</asrwt>
<pdfrwt beam="1">  1        4 0.34743420E-01 0.91583696E+02</pdfrwt>
<pdfrwt beam="2">  1       -4 0.68630451E-02 0.91583696E+02</pdfrwt>
<totfact> 0.17087066E+03</totfact>
</mgrwt>
</event>
<event>
 8    1  0.1893090E-003  0.1420196E+03  0.7546771E-02  0.1212873E+00
          2   -1    0    0  501    0  0.00000000000E+00  0.00000000000E+00  0.10296784570E+03  0.10296784570E+03  0.00000000000E+00 0. -1.
         -2   -1    0    0    0  501 -0.00000000000E+00 -0.00000000000E+00 -0.19821517625E+03  0.19821517625E+03  0.00000000000E+00 0.  1.
         23    2    1    2    0    0  0.46411171407E+02 -0.99130720931E+02 -0.10552648991E+02  0.13582660730E+03  0.79728365012E+02 0.  0.
         23    2    1    2    0    0 -0.46411171407E+02  0.99130720931E+02 -0.84694681561E+02  0.16535641465E+03  0.90491204641E+02 0.  0.
          5    1    3    3  502    0  0.46335415154E+02 -0.47277309121E+02 -0.38511128016E+02  0.76728818812E+02  0.47000000000E+01 0. -1.
         -5    1    4    4    0  503 -0.72969689801E+02  0.79873541763E+02 -0.58271217163E+02  0.12297147252E+03  0.47000000000E+01 0.  1.
          5    1    4    4  503    0  0.26558518394E+02  0.19257179168E+02 -0.26423464398E+02  0.42384942132E+02  0.47000000000E+01 0. -1.
         -5    1    3    3    0  502  0.75756252879E-01 -0.51853411810E+02  0.27958479025E+02  0.59097788493E+02  0.47000000000E+01 0.  1.
<mgrwt>
<rscale>  0 0.14033909E+03</rscale>
<asrwt>0</asrwt>
<pdfrwt beam="1">  1        2 0.15841207E-01 0.14201956E+03</pdfrwt>
<pdfrwt beam="2">  1       -2 0.30494643E-01 0.14201956E+03</pdfrwt>
<totfact> 0.34863299E+03</totfact>
</mgrwt>
</event>
<event>
 8    1  0.1893090E-003  0.1079780E+03  0.7546771E-02  0.1264419E+00
          2   -1    0    0  501    0  0.00000000000E+00  0.00000000000E+00  0.85865447929E+02  0.85865447929E+02  0.00000000000E+00 0. -1.
         -2   -1    0    0    0  501 -0.00000000000E+00 -0.00000000000E+00 -0.13652139939E+03  0.13652139939E+03  0.00000000000E+00 0.  1.
         23    2    1    2    0    0  0.18128222202E+02  0.58169646749E+02 -0.34288767964E+02  0.11317544275E+03  0.88997870705E+02 0.  0.
         23    2    1    2    0    0 -0.18128222202E+02 -0.58169646749E+02 -0.16367183499E+02  0.10921140457E+03  0.89145420241E+02 0.  0.
          5    1    4    4  502    0  0.32289041507E+02 -0.23987614367E+02 -0.24876777288E+02  0.47528222066E+02  0.47000000000E+01 0. -1.
         -5    1    4    4    0  502 -0.50417263709E+02 -0.34182032382E+02  0.85095937891E+01  0.61683182506E+02  0.47000000000E+01 0.  1.
          5    1    3    3  503    0  0.68917500652E+01  0.78564654000E+02 -0.10751736580E+02  0.79734502673E+02  0.47000000000E+01 0. -1.
         -5    1    3    3    0  503  0.11236472136E+02 -0.20395007251E+02 -0.23537031384E+02  0.33440940076E+02  0.47000000000E+01 0.  1.
<mgrwt>
<rscale>  0 0.10794753E+03</rscale>
<asrwt>0</asrwt>
<pdfrwt beam="1">  1        2 0.13210069E-01 0.10797799E+03</pdfrwt>
<pdfrwt beam="2">  1       -2 0.21003292E-01 0.10797799E+03</pdfrwt>
<totfact> 0.81168372E+03</totfact>
</mgrwt>
</event>
<event>
 8    1  0.1893090E-003  0.9832260E+02  0.7546771E-02  0.1285187E+00
          1   -1    0    0  501    0  0.00000000000E+00  0.00000000000E+00  0.56448304858E+02  0.56448304858E+02  0.00000000000E+00 0. -1.
         -1   -1    0    0    0  501 -0.00000000000E+00 -0.00000000000E+00 -0.17328072430E+03  0.17328072430E+03  0.00000000000E+00 0.  1.
         23    2    1    2    0    0  0.52697651085E+01  0.32919112659E+02 -0.80887708128E+02  0.12731910989E+03  0.92498086541E+02 0.  0.
         23    2    1    2    0    0 -0.52697651085E+01 -0.32919112659E+02 -0.35944711316E+02  0.10240991927E+03  0.89912907255E+02 0.  0.
          5    1    4    4  502    0 -0.30031236206E+02  0.20588861726E+02 -0.12431370022E+02  0.38760873775E+02  0.47000000000E+01 0. -1.
         -5    1    4    4    0  502  0.24761471097E+02 -0.53507974385E+02 -0.23513341294E+02  0.63649045496E+02  0.47000000000E+01 0.  1.
          5    1    3    3  503    0 -0.63700636845E+01  0.61250941892E+02 -0.32315911994E+02  0.69704115818E+02  0.47000000000E+01 0. -1.
         -5    1    3    3    0  503  0.11639828793E+02 -0.28331829232E+02 -0.48571796134E+02  0.57614994070E+02  0.47000000000E+01 0.  1.
<mgrwt>
<rscale>  0 0.97709893E+02</rscale>
<asrwt>0</asrwt>
<pdfrwt beam="1">  1        1 0.86843548E-02 0.98322604E+02</pdfrwt>
<pdfrwt beam="2">  1       -1 0.26658572E-01 0.98322604E+02</pdfrwt>
<totfact> 0.88913685E+03</totfact>
</mgrwt>
</event>
<event>
 8    1  0.1893090E-003  0.2661647E+03  0.7546771E-02  0.1103755E+00
          1   -1    0    0  501    0  0.00000000000E+00  0.00000000000E+00  0.17444773420E+04  0.17444773420E+04  0.00000000000E+00 0. -1.
         -1   -1    0    0    0  501 -0.00000000000E+00 -0.00000000000E+00 -0.49827481598E+02  0.49827481598E+02  0.00000000000E+00 0.  1.
         23    2    1    2    0    0 -0.20365140738E+03  0.14381330924E+03  0.45354649114E+03  0.52498167931E+03  0.88006706236E+02 0.  0.
         23    2    1    2    0    0  0.20365140738E+03 -0.14381330924E+03  0.12411033693E+04  0.12693231443E+04  0.93206801247E+02 0.  0.
          5    1    4    4  502    0  0.15013650576E+03 -0.12269316351E+03  0.74341427322E+03  0.76829776413E+03  0.47000000000E+01 0. -1.
         -5    1    3    3    0  503 -0.19809699998E+03  0.10632570263E+03  0.40468088149E+03  0.46296466634E+03  0.47000000000E+01 0.  1.
          5    1    3    3  503    0 -0.55544074028E+01  0.37487606604E+02  0.48865609653E+02  0.62017012966E+02  0.47000000000E+01 0. -1.
         -5    1    4    4    0  502  0.53514901619E+02 -0.21120145730E+02  0.49768909605E+03  0.50102538017E+03  0.47000000000E+01 0.  1.
<mgrwt>
<rscale>  0 0.26571960E+03</rscale>
<asrwt>0</asrwt>
<pdfrwt beam="1">  1        1 0.26838108E+00 0.26616474E+03</pdfrwt>
<pdfrwt beam="2">  1       -1 0.76657677E-02 0.26616474E+03</pdfrwt>
<totfact> 0.45543589E+02</totfact>
</mgrwt>
</event>
<event>
 8    1  0.1893090E-003  0.1053326E+03  0.7546771E-02  0.1269697E+00
         -1   -1    0    0    0  501 -0.00000000000E+00  0.00000000000E+00  0.30685199568E+02  0.30685199568E+02  0.00000000000E+00 0.  1.
          1   -1    0    0  501    0  0.00000000000E+00 -0.00000000000E+00 -0.36282130705E+03  0.36282130705E+03  0.00000000000E+00 0. -1.
         23    2    1    2    0    0 -0.44485878389E+02 -0.15887866138E+02 -0.18390934918E+03  0.21193775423E+03  0.94146403463E+02 0.  0.
         23    2    1    2    0    0  0.44485878389E+02  0.15887866138E+02 -0.14822675830E+03  0.18156875239E+03  0.93619561532E+02 0.  0.
          5    1    3    3  502    0 -0.38090263794E+02  0.30037065694E+02 -0.48599991679E+02  0.68826903916E+02  0.47000000000E+01 0. -1.
         -5    1    4    4    0  503  0.84239911488E+01 -0.34685222891E+02 -0.26079433681E+02  0.44455091665E+02  0.47000000000E+01 0.  1.
          5    1    4    4  503    0  0.36061887240E+02  0.50573089029E+02 -0.12214732462E+03  0.13711366073E+03  0.47000000000E+01 0. -1.
         -5    1    3    3    0  502 -0.63956145943E+01 -0.45924931832E+02 -0.13530935750E+03  0.14311085031E+03  0.47000000000E+01 0.  1.
<mgrwt>
<rscale>  0 0.10521478E+03</rscale>
<asrwt>0</asrwt>
<pdfrwt beam="1">  1        1 0.55818666E-01 0.10533263E+03</pdfrwt>
<pdfrwt beam="2">  1       -1 0.47207996E-02 0.10533263E+03</pdfrwt>
<totfact> 0.12192302E+04</totfact>
</mgrwt>
</event>
<event>
 8    1  0.1893090E-003  0.2632592E+03  0.7546771E-02  0.1105322E+00
          1   -1    0    0  501    0  0.00000000000E+00  0.00000000000E+00  0.91609171743E+03  0.91609171743E+03  0.00000000000E+00 0. -1.
         -1   -1    0    0    0  501 -0.00000000000E+00 -0.00000000000E+00 -0.81471092768E+02  0.81471092768E+02  0.00000000000E+00 0.  1.
         23    2    1    2    0    0 -0.24212977513E+03  0.41604347370E+02  0.28075107161E+03  0.38431173935E+03  0.92285421738E+02 0.  0.
         23    2    1    2    0    0  0.24212977513E+03 -0.41604347370E+02  0.55386955304E+03  0.61325107084E+03  0.94591988966E+02 0.  0.
          5    1    3    3  502    0 -0.97376536933E+02  0.52540496101E+02  0.16435336921E+03  0.19818378755E+03  0.47000000000E+01 0. -1.
         -5    1    3    3    0  502 -0.14475323820E+03 -0.10936148731E+02  0.11639770240E+03  0.18612795180E+03  0.47000000000E+01 0.  1.
          5    1    4    4  503    0  0.10410234647E+03 -0.47264832749E+02  0.16709208054E+03  0.20251695321E+03  0.47000000000E+01 0. -1.
         -5    1    4    4    0  503  0.13802742866E+03  0.56604853784E+01  0.38677747250E+03  0.41073411764E+03  0.47000000000E+01 0.  1.
<mgrwt>
<rscale>  0 0.26305395E+03</rscale>
<asrwt>0</asrwt>
<pdfrwt beam="1">  1        1 0.14093718E+00 0.26325918E+03</pdfrwt>
<pdfrwt beam="2">  1       -1 0.12534015E-01 0.26325918E+03</pdfrwt>
<totfact> 0.79566036E+02</totfact>
</mgrwt>
</event>
<event>
 8    1  0.1893090E-003  0.9387416E+02  0.7546771E-02  0.1294002E+00
         -2   -1    0    0    0  501 -0.00000000000E+00  0.00000000000E+00  0.46127825040E+03  0.46127825040E+03  0.00000000000E+00 0.  1.
          2   -1    0    0  501    0  0.00000000000E+00 -0.00000000000E+00 -0.19021453861E+02  0.19021453861E+02  0.00000000000E+00 0. -1.
         23    2    1    2    0    0  0.52622203715E+01  0.23565352635E+02  0.21434022842E+03  0.23380767556E+03  0.90229035360E+02 0.  0.
         23    2    1    2    0    0 -0.52622203715E+01 -0.23565352635E+02  0.22791656812E+03  0.24649202870E+03  0.90715717403E+02 0.  0.
          5    1    4    4  502    0 -0.28284341112E+02  0.26059548154E+02  0.86035905785E+02  0.94357676351E+02  0.47000000000E+01 0. -1.
         -5    1    3    3    0  503  0.27074009733E+02 -0.16888053213E+02  0.15646380001E+03  0.15975361986E+03  0.47000000000E+01 0.  1.
          5    1    3    3  503    0 -0.21811789361E+02  0.40453405848E+02  0.57876428411E+02  0.74054055699E+02  0.47000000000E+01 0. -1.
         -5    1    4    4    0  502  0.23022120741E+02 -0.49624900790E+02  0.14188066233E+03  0.15213435235E+03  0.47000000000E+01 0.  1.
<mgrwt>
<rscale>  0 0.93756384E+02</rscale>
<asrwt>0</asrwt>
<pdfrwt beam="1">  1        2 0.29263779E-02 0.93874161E+02</pdfrwt>
<pdfrwt beam="2">  1       -2 0.70965876E-01 0.93874161E+02</pdfrwt>
<totfact> 0.54766448E+03</totfact>
</mgrwt>
</event>
<event>
 8    1  0.1893090E-003  0.9851611E+02  0.7546771E-02  0.1283683E+00
         -1   -1    0    0    0  501 -0.00000000000E+00  0.00000000000E+00  0.70946453320E+02  0.70946453320E+02  0.00000000000E+00 0.  1.
          1   -1    0    0  501    0  0.00000000000E+00 -0.00000000000E+00 -0.13621145978E+03  0.13621145978E+03  0.00000000000E+00 0. -1.
         23    2    1    2    0    0 -0.26360952867E+02 -0.26899110922E+02 -0.33922557652E+02  0.10419291451E+03  0.91032749670E+02 0.  0.
         23    2    1    2    0    0  0.26360952867E+02  0.26899110922E+02 -0.31342448804E+02  0.10296499858E+03  0.90559261437E+02 0.  0.
          5    1    3    3  502    0  0.18239806943E+02  0.23853086833E+02 -0.14870341192E+02  0.33836036351E+02  0.47000000000E+01 0. -1.
         -5    1    3    3    0  502 -0.44600759810E+02 -0.50752197755E+02 -0.19052216459E+02  0.70356878161E+02  0.47000000000E+01 0.  1.
          5    1    4    4  503    0  0.86457153407E+01 -0.18930774282E+02 -0.46641248173E+02  0.51289556830E+02  0.47000000000E+01 0. -1.
         -5    1    4    4    0  503  0.17715237527E+02  0.45829885204E+02  0.15298799368E+02  0.51675441755E+02  0.47000000000E+01 0.  1.
<mgrwt>
<rscale>  0 0.98406587E+02</rscale>
<asrwt>0</asrwt>
<pdfrwt beam="1">  1        1 0.20955609E-01 0.98516108E+02</pdfrwt>
<pdfrwt beam="2">  1       -1 0.10914839E-01 0.98516108E+02</pdfrwt>
<totfact> 0.11635080E+04</totfact>
</mgrwt>
</event>
<event>
 8    1  0.1893090E-003  0.1142678E+03  0.7546771E-02  0.1255941E+00
         -1   -1    0    0    0  501 -0.00000000000E+00  0.00000000000E+00  0.28719341186E+02  0.28719341186E+02  0.00000000000E+00 0.  1.
          1   -1    0    0  501    0  0.00000000000E+00 -0.00000000000E+00 -0.47691967576E+03  0.47691967576E+03  0.00000000000E+00 0. -1.
         23    2    1    2    0    0  0.50637890364E+02  0.27684625899E+02 -0.29879269996E+03  0.31754392794E+03  0.90699692240E+02 0.  0.
         23    2    1    2    0    0 -0.50637890364E+02 -0.27684625899E+02 -0.14940763462E+03  0.18809508901E+03  0.98622952575E+02 0.  0.
          5    1    4    4  502    0 -0.31147360843E+02  0.20681968230E+02 -0.12457042845E+03  0.13014524018E+03  0.47000000000E+01 0. -1.
         -5    1    4    4    0  502 -0.19490529522E+02 -0.48366594129E+02 -0.24837206166E+02  0.57949848825E+02  0.47000000000E+01 0.  1.
          5    1    3    3  503    0  0.72838060702E+02  0.17274631507E+02 -0.16239157930E+03  0.17887680400E+03  0.47000000000E+01 0. -1.
         -5    1    3    3    0  503 -0.22200170338E+02  0.10409994391E+02 -0.13640112066E+03  0.13866712394E+03  0.47000000000E+01 0.  1.
<mgrwt>
<rscale>  0 0.11253789E+03</rscale>
<asrwt>0</asrwt>
<pdfrwt beam="1">  1        1 0.73372254E-01 0.11426776E+03</pdfrwt>
<pdfrwt beam="2">  1       -1 0.44183604E-02 0.11426776E+03</pdfrwt>
<totfact> 0.95858130E+03</totfact>
</mgrwt>
</event>
<event>
 8    1  0.1893090E-003  0.1334230E+03  0.7546771E-02  0.1222608E+00
          1   -1    0    0  501    0  0.00000000000E+00  0.00000000000E+00  0.25628927253E+03  0.25628927253E+03  0.00000000000E+00 0. -1.
         -1   -1    0    0    0  501 -0.00000000000E+00 -0.00000000000E+00 -0.72909325074E+02  0.72909325074E+02  0.00000000000E+00 0.  1.
         23    2    1    2    0    0 -0.53562526768E+02  0.80891040250E+02  0.54946580354E+02  0.14429421432E+03  0.91593607453E+02 0.  0.
         23    2    1    2    0    0  0.53562526768E+02 -0.80891040250E+02  0.12843336710E+03  0.18490438328E+03  0.91006573974E+02 0.  0.
          5    1    4    4  502    0  0.16004155851E+02 -0.74034542052E+02  0.12506563572E+03  0.14628995064E+03  0.47000000000E+01 0. -1.
         -5    1    3    3    0  503  0.21077680590E+02 -0.76487576366E+00  0.16105064990E+02  0.26950264792E+02  0.47000000000E+01 0.  1.
          5    1    3    3  503    0 -0.74640207358E+02  0.81655916014E+02  0.38841515364E+02  0.11734394953E+03  0.47000000000E+01 0. -1.
         -5    1    4    4    0  502  0.37558370917E+02 -0.68564981984E+01  0.33677313792E+01  0.38614432640E+02  0.47000000000E+01 0.  1.
<mgrwt>
<rscale>  0 0.13332230E+03</rscale>
<asrwt>0</asrwt>
<pdfrwt beam="1">  1        1 0.39429118E-01 0.13342299E+03</pdfrwt>
<pdfrwt beam="2">  1       -1 0.11216819E-01 0.13342299E+03</pdfrwt>
<totfact> 0.52109070E+03</totfact>
</mgrwt>
</event>
<event>
 8    1  0.1893090E-003  0.9840808E+02  0.7546771E-02  0.1283898E+00
         -2   -1    0    0    0  501 -0.00000000000E+00  0.00000000000E+00  0.44790064931E+03  0.44790064931E+03  0.00000000000E+00 0.  1.
          2   -1    0    0  501    0  0.00000000000E+00 -0.00000000000E+00 -0.74502646225E+02  0.74502646225E+02  0.00000000000E+00 0. -1.
         23    2    1    2    0    0 -0.27733468851E+02 -0.14235997427E+02 -0.33658463607E+02  0.10362039620E+03  0.92911169503E+02 0.  0.
         23    2    1    2    0    0  0.27733468851E+02  0.14235997427E+02  0.40705646669E+03  0.41878289933E+03  0.93339920638E+02 0.  0.
          5    1    4    4  502    0 -0.26610708943E+02 -0.92846211859E+01  0.57422069472E+02  0.64138273157E+02  0.47000000000E+01 0. -1.
         -5    1    4    4    0  502  0.54344177794E+02  0.23520618613E+02  0.34963439721E+03  0.35464462618E+03  0.47000000000E+01 0.  1.
          5    1    3    3  503    0 -0.19298218190E+02 -0.52411371935E+02 -0.79900733755E+01  0.56615407850E+02  0.47000000000E+01 0.  1.
         -5    1    3    3    0  503 -0.84352506611E+01  0.38175374508E+02 -0.25668390231E+02  0.47004988348E+02  0.47000000000E+01 0. -1.
<mgrwt>
<rscale>  0 0.98306276E+02</rscale>
<asrwt>0</asrwt>
<pdfrwt beam="1">  1        2 0.11461946E-01 0.98408077E+02</pdfrwt>
<pdfrwt beam="2">  1       -2 0.68907790E-01 0.98408077E+02</pdfrwt>
<totfact> 0.10283807E+03</totfact>
</mgrwt>
</event>
<event>
 8    1  0.1893090E-003  0.1239837E+03  0.7546771E-02  0.1237671E+00
          1   -1    0    0  501    0  0.00000000000E+00  0.00000000000E+00  0.14903940348E+02  0.14903940348E+02  0.00000000000E+00 0. -1.
         -1   -1    0    0    0  501 -0.00000000000E+00 -0.00000000000E+00 -0.11582121512E+04  0.11582121512E+04  0.00000000000E+00 0.  1.
         23    2    1    2    0    0  0.71776184351E+02 -0.34529945125E+02 -0.36735956171E+03  0.38771767503E+03  0.95014789380E+02 0.  0.
         23    2    1    2    0    0 -0.71776184351E+02  0.34529945125E+02 -0.77594864914E+03  0.78539841651E+03  0.91707299673E+02 0.  0.
          5    1    4    4  502    0  0.17525897632E+02  0.25765607769E+02 -0.18783104803E+03  0.19045633682E+03  0.47000000000E+01 0. -1.
         -5    1    4    4    0  502 -0.89302081982E+02  0.87643373560E+01 -0.58811760111E+03  0.59494207969E+03  0.47000000000E+01 0.  1.
          5    1    3    3  503    0  0.59943447908E+02  0.23478530981E+02 -0.19657176281E+03  0.20689854107E+03  0.47000000000E+01 0. -1.
         -5    1    3    3    0  503  0.11832736443E+02 -0.58008476106E+02 -0.17078779890E+03  0.18081913395E+03  0.47000000000E+01 0.  1.
<mgrwt>
<rscale>  0 0.12334979E+03</rscale>
<asrwt>0</asrwt>
<pdfrwt beam="1">  1        1 0.22929141E-02 0.12398366E+03</pdfrwt>
<pdfrwt beam="2">  1       -1 0.17818647E+00 0.12398366E+03</pdfrwt>
<totfact> 0.11446867E+03</totfact>
</mgrwt>
</event>
<event>
 8    1  0.1893090E-003  0.1043140E+03  0.7546771E-02  0.1273009E+00
         -2   -1    0    0    0  501 -0.00000000000E+00  0.00000000000E+00  0.45962959695E+02  0.45962959695E+02  0.00000000000E+00 0.  1.
          2   -1    0    0  501    0  0.00000000000E+00 -0.00000000000E+00 -0.32762062502E+03  0.32762062502E+03  0.00000000000E+00 0. -1.
         23    2    1    2    0    0 -0.47792720951E+02  0.63157734195E+01 -0.37365402310E+02  0.10795202817E+03  0.89069826122E+02 0.  0.
         23    2    1    2    0    0  0.47792720951E+02 -0.63157734195E+01 -0.24429226302E+03  0.26563155655E+03  0.92506112753E+02 0.  0.
          5    1    4    4  502    0  0.44560732982E+02  0.31066318722E+02 -0.20045512333E+03  0.20773810809E+03  0.47000000000E+01 0. -1.
         -5    1    3    3    0  503 -0.32831909425E+02 -0.39128469922E+02 -0.29697215303E+02  0.59270448215E+02  0.47000000000E+01 0.  1.
          5    1    3    3  503    0 -0.14960811526E+02  0.45444243342E+02 -0.76681870075E+01  0.48681579950E+02  0.47000000000E+01 0. -1.
         -5    1    4    4    0  502  0.32319879692E+01 -0.37382092142E+02 -0.43837139687E+02  0.57893448464E+02  0.47000000000E+01 0.  1.
<mgrwt>
<rscale>  0 0.10354688E+03</rscale>
<asrwt>0</asrwt>
<pdfrwt beam="1">  1        2 0.50403172E-01 0.10431402E+03</pdfrwt>
<pdfrwt beam="2">  1       -2 0.70712248E-02 0.10431402E+03</pdfrwt>
<totfact> 0.10554654E+04</totfact>
</mgrwt>
</event>
<event>
 8    1  0.1893090E-003  0.1171757E+03  0.7546771E-02  0.1248099E+00
          1   -1    0    0  501    0  0.00000000000E+00  0.00000000000E+00  0.39016143153E+03  0.39016143153E+03  0.00000000000E+00 0. -1.
         -1   -1    0    0    0  501 -0.00000000000E+00 -0.00000000000E+00 -0.36255681189E+02  0.36255681189E+02  0.00000000000E+00 0.  1.
         23    2    1    2    0    0  0.68752994314E+02 -0.26191157511E+02  0.13776858998E+03  0.18085997445E+03  0.91198656871E+02 0.  0.
         23    2    1    2    0    0 -0.68752994314E+02  0.26191157511E+02  0.21613716037E+03  0.24555713827E+03  0.90388523086E+02 0.  0.
          5    1    4    4  502    0 -0.85516800123E+02  0.37871795707E+01  0.18190791219E+03  0.20109710180E+03  0.47000000000E+01 0. -1.
         -5    1    3    3    0  503  0.16565419587E+02 -0.51959452036E+02  0.90354972730E+02  0.10564236309E+03  0.47000000000E+01 0.  1.
          5    1    3    3  503    0  0.52187574727E+02  0.25768294524E+02  0.47413617250E+02  0.75217611364E+02  0.47000000000E+01 0. -1.
         -5    1    4    4    0  502  0.16763805810E+02  0.22403977941E+02  0.34229248171E+02  0.44460036472E+02  0.47000000000E+01 0.  1.
<mgrwt>
<rscale>  0 0.11701803E+03</rscale>
<asrwt>0</asrwt>
<pdfrwt beam="1">  1        1 0.60024833E-01 0.11717571E+03</pdfrwt>
<pdfrwt beam="2">  1       -1 0.55777974E-02 0.11717571E+03</pdfrwt>
<totfact> 0.87858795E+03</totfact>
</mgrwt>
</event>
<event>
 8    1  0.1893090E-003  0.1081659E+03  0.7546771E-02  0.1264231E+00
          1   -1    0    0  501    0  0.00000000000E+00  0.00000000000E+00  0.82485174315E+02  0.82485174315E+02  0.00000000000E+00 0. -1.
         -1   -1    0    0    0  501 -0.00000000000E+00 -0.00000000000E+00 -0.34361233909E+03  0.34361233909E+03  0.00000000000E+00 0.  1.
         23    2    1    2    0    0  0.54643151027E+02 -0.24071518337E+01 -0.29395519515E+03  0.31305967969E+03  0.92763343822E+02 0.  0.
         23    2    1    2    0    0 -0.54643151027E+02  0.24071518337E+01  0.32828030378E+02  0.11303783371E+03  0.93317757893E+02 0.  0.
          5    1    3    3  502    0  0.19714012430E+02  0.34540025560E+02 -0.51246670682E+02  0.65038195761E+02  0.47000000000E+01 0. -1.
         -5    1    3    3    0  502  0.34929138596E+02 -0.36947177394E+02 -0.24270852447E+03  0.24802148393E+03  0.47000000000E+01 0.  1.
          5    1    4    4  503    0 -0.61118613284E+02  0.34560598399E+02  0.37230952392E+02  0.79612522052E+02  0.47000000000E+01 0. -1.
         -5    1    4    4    0  503  0.64754622571E+01 -0.32153446565E+02 -0.44029220140E+01  0.33425311662E+02  0.47000000000E+01 0.  1.
<mgrwt>
<rscale>  0 0.10804626E+03</rscale>
<asrwt>0</asrwt>
<pdfrwt beam="1">  1        1 0.12690027E-01 0.10816595E+03</pdfrwt>
<pdfrwt beam="2">  1       -1 0.52863435E-01 0.10816595E+03</pdfrwt>
<totfact> 0.16675627E+03</totfact>
</mgrwt>
</event>
<event>
 8    1  0.3511888E-003  0.1061673E+03  0.7546771E-02  0.1273560E+00
         -1   -1    0    0    0  501 -0.00000000000E+00  0.00000000000E+00  0.21082224717E+03  0.21082224717E+03  0.00000000000E+00 0.  1.
          1   -1    0    0  501    0  0.00000000000E+00 -0.00000000000E+00 -0.38525245464E+03  0.38525245464E+03  0.00000000000E+00 0. -1.
         23    2    1    2    0    0 -0.42948165434E+02  0.34447185498E+02 -0.36540892343E+03  0.37756983889E+03  0.77486440202E+02 0.  0.
         23    2    1    2    0    0  0.42948165434E+02 -0.34447185498E+02  0.19097871596E+03  0.21850486293E+03  0.90776382786E+02 0.  0.
          5    1    4    4  502    0 -0.19925870140E+01 -0.55589754880E+02  0.90705027831E+02  0.10650672901E+03  0.47000000000E+01 0. -1.
         -5    1    3    3    0  503 -0.91137495471E+01  0.32342160135E+02 -0.50699374126E+02  0.61004854641E+02  0.47000000000E+01 0.  1.
          5    1    3    3  503    0 -0.33834415887E+02  0.21050253625E+01 -0.31470954930E+03  0.31656498425E+03  0.47000000000E+01 0. -1.
         -5    1    4    4    0  502  0.44940752448E+02  0.21142569382E+02  0.10027368812E+03  0.11199813392E+03  0.47000000000E+01 0.  1.
<mgrwt>
<rscale>  0 0.10327282E+03</rscale>
<asrwt>0</asrwt>
<pdfrwt beam="1">  1        1 0.59269608E-01 0.10616735E+03</pdfrwt>
<pdfrwt beam="2">  1       -1 0.32434192E-01 0.10616735E+03</pdfrwt>
<totfact> 0.57212511E+02</totfact>
</mgrwt>
</event>
<event>
 8    1  0.1893090E-003  0.9591057E+02  0.7546771E-02  0.1289891E+00
          1   -1    0    0  501    0  0.00000000000E+00  0.00000000000E+00  0.10191215448E+04  0.10191215448E+04  0.00000000000E+00 0. -1.
         -1   -1    0    0    0  501 -0.00000000000E+00 -0.00000000000E+00 -0.89696869353E+01  0.89696869353E+01  0.00000000000E+00 0.  1.
         23    2    1    2    0    0 -0.12620892533E+02  0.27740241081E+02  0.55382867105E+03  0.56207208915E+03  0.90939697736E+02 0.  0.
         23    2    1    2    0    0  0.12620892533E+02 -0.27740241081E+02  0.45632318685E+03  0.46601914261E+03  0.89521966720E+02 0.  0.
          5    1    3    3  502    0  0.33800954959E+02 -0.86206975973E+01  0.16001592103E+03  0.16384140492E+03  0.47000000000E+01 0. -1.
         -5    1    3    3    0  502 -0.46421847492E+02  0.36360938679E+02  0.39381275002E+03  0.39823068423E+03  0.47000000000E+01 0.  1.
          5    1    4    4  503    0  0.39703904988E+02 -0.15842403293E+02  0.39928979457E+03  0.40159906855E+03  0.47000000000E+01 0. -1.
         -5    1    4    4    0  503 -0.27083012455E+02 -0.11897837789E+02  0.57033392277E+02  0.64420074064E+02  0.47000000000E+01 0.  1.
<mgrwt>
<rscale>  0 0.95572992E+02</rscale>
<asrwt>0</asrwt>
<pdfrwt beam="1">  1        1 0.15678784E+00 0.95910565E+02</pdfrwt>
<pdfrwt beam="2">  1       -1 0.13799526E-02 0.95910565E+02</pdfrwt>
<totfact> 0.16986909E+04</totfact>
</mgrwt>
</event>
<event>
 8    1  0.1893090E-003  0.1920299E+03  0.7546771E-02  0.1157625E+00
         -1   -1    0    0    0  501 -0.00000000000E+00  0.00000000000E+00  0.56424927467E+03  0.56424927467E+03  0.00000000000E+00 0.  1.
          1   -1    0    0  501    0  0.00000000000E+00 -0.00000000000E+00 -0.69763900280E+02  0.69763900280E+02  0.00000000000E+00 0. -1.
         23    2    1    2    0    0  0.12420232344E+03  0.10647486650E+03  0.15255891657E+03  0.24185355507E+03  0.91955449711E+02 0.  0.
         23    2    1    2    0    0 -0.12420232344E+03 -0.10647486650E+03  0.34192645782E+03  0.39215961988E+03  0.10056018378E+03 0.  0.
          5    1    3    3  502    0  0.29581689465E+02  0.33888113233E+02 -0.35294232373E+01  0.45365486865E+02  0.47000000000E+01 0. -1.
         -5    1    4    4    0  503 -0.19921875615E+02 -0.43665325786E+02  0.19707060946E+03  0.20288532947E+03  0.47000000000E+01 0.  1.
          5    1    4    4  503    0 -0.10428044782E+03 -0.62809540715E+02  0.14485584837E+03  0.18927429041E+03  0.47000000000E+01 0. -1.
         -5    1    3    3    0  502  0.94620633975E+02  0.72586753268E+02  0.15608833981E+03  0.19648806821E+03  0.47000000000E+01 0.  1.
<mgrwt>
<rscale>  0 0.19092973E+03</rscale>
<asrwt>0</asrwt>
<pdfrwt beam="1">  1        1 0.10732908E-01 0.19202985E+03</pdfrwt>
<pdfrwt beam="2">  1       -1 0.86807578E-01 0.19202985E+03</pdfrwt>
<totfact> 0.79725950E+02</totfact>
</mgrwt>
</event>
<event>
 8    1  0.1893090E-003  0.9606612E+02  0.7546771E-02  0.1292289E+00
          1   -1    0    0  501    0  0.00000000000E+00  0.00000000000E+00  0.11745986264E+03  0.11745986264E+03  0.00000000000E+00 0. -1.
         -1   -1    0    0    0  501 -0.00000000000E+00 -0.00000000000E+00 -0.75617621829E+02  0.75617621829E+02  0.00000000000E+00 0.  1.
         23    2    1    2    0    0 -0.14122786003E+02  0.28230850631E+01  0.47757435146E+01  0.90108433606E+02  0.88821726999E+02 0.  0.
         23    2    1    2    0    0  0.14122786003E+02 -0.28230850631E+01  0.37066497293E+02  0.10296905086E+03  0.94980404924E+02 0.  0.
          5    1    4    4  502    0  0.12137711732E+02  0.36466350523E+02  0.48189690568E+02  0.61817918467E+02  0.47000000000E+01 0. -1.
         -5    1    3    3    0  503 -0.28722019014E+02 -0.25251842049E+02  0.30432214336E+02  0.49100097480E+02  0.47000000000E+01 0.  1.
          5    1    3    3  503    0  0.14599233010E+02  0.28074927113E+02 -0.25656470821E+02  0.41008336127E+02  0.47000000000E+01 0. -1.
         -5    1    4    4    0  502  0.19850742709E+01 -0.39289435586E+02 -0.11123193275E+02  0.41151132392E+02  0.47000000000E+01 0.  1.
<mgrwt>
<rscale>  0 0.94507518E+02</rscale>
<asrwt>0</asrwt>
<pdfrwt beam="1">  1        1 0.18070748E-01 0.96066124E+02</pdfrwt>
<pdfrwt beam="2">  1       -1 0.11633480E-01 0.96066124E+02</pdfrwt>
<totfact> 0.12694615E+04</totfact>
</mgrwt>
</event>
<event>
 8    1  0.1893090E-003  0.1136228E+03  0.7546771E-02  0.1254208E+00
         -2   -1    0    0    0  501 -0.00000000000E+00  0.00000000000E+00  0.14237899023E+02  0.14237899023E+02  0.00000000000E+00 0.  1.
          2   -1    0    0  501    0  0.00000000000E+00 -0.00000000000E+00 -0.12435456039E+04  0.12435456039E+04  0.00000000000E+00 0. -1.
         23    2    1    2    0    0 -0.66722083444E+02 -0.14348102604E+02 -0.94281234444E+03  0.94957946051E+03  0.90268103591E+02 0.  0.
         23    2    1    2    0    0  0.66722083444E+02  0.14348102604E+02 -0.28649536048E+03  0.30820404245E+03  0.90842917954E+02 0.  0.
          5    1    3    3  502    0  0.22144586593E+02  0.98670891267E+00 -0.16739822368E+03  0.16892486970E+03  0.47000000000E+01 0. -1.
         -5    1    4    4    0  503  0.29977513945E+02  0.51092747612E+02 -0.12333811480E+03  0.13690690546E+03  0.47000000000E+01 0.  1.
          5    1    4    4  503    0  0.36744569499E+02 -0.36744645008E+02 -0.16315724568E+03  0.17129713699E+03  0.47000000000E+01 0. -1.
         -5    1    3    3    0  502 -0.88866670037E+02 -0.15334811517E+02 -0.77541412075E+03  0.78065459081E+03  0.47000000000E+01 0.  1.
<mgrwt>
<rscale>  0 0.11350786E+03</rscale>
<asrwt>0</asrwt>
<pdfrwt beam="1">  1        2 0.19131472E+00 0.11362280E+03</pdfrwt>
<pdfrwt beam="2">  1       -2 0.21904458E-02 0.11362280E+03</pdfrwt>
<totfact> 0.12208635E+04</totfact>
</mgrwt>
</event>
<event>
 8    1  0.1893090E-003  0.1227961E+03  0.7546771E-02  0.1239160E+00
          2   -1    0    0  501    0  0.00000000000E+00  0.00000000000E+00  0.33215239411E+03  0.33215239411E+03  0.00000000000E+00 0. -1.
         -2   -1    0    0    0  501 -0.00000000000E+00 -0.00000000000E+00 -0.52675933107E+02  0.52675933107E+02  0.00000000000E+00 0.  1.
         23    2    1    2    0    0  0.65181529370E+02  0.50053069444E+02  0.64809963150E+02  0.13752166151E+03  0.89207256039E+02 0.  0.
         23    2    1    2    0    0 -0.65181529370E+02 -0.50053069444E+02  0.21466649785E+03  0.24730666570E+03  0.91241109537E+02 0.  0.
          5    1    4    4  502    0 -0.32996110424E+02  0.20545650409E+02  0.11122171567E+03  0.11791194634E+03  0.47000000000E+01 0. -1.
         -5    1    4    4    0  502 -0.32185418947E+02 -0.70598719853E+02  0.10344478218E+03  0.12939471936E+03  0.47000000000E+01 0.  1.
          5    1    3    3  503    0  0.79961060594E+01  0.61152902084E+02  0.42108653852E+02  0.74825422649E+02  0.47000000000E+01 0. -1.
         -5    1    3    3    0  503  0.57185423311E+02 -0.11099832640E+02  0.22701309298E+02  0.62696238864E+02  0.47000000000E+01 0.  1.
<mgrwt>
<rscale>  0 0.12241847E+03</rscale>
<asrwt>0</asrwt>
<pdfrwt beam="1">  1        2 0.51100367E-01 0.12279610E+03</pdfrwt>
<pdfrwt beam="2">  1       -2 0.81039899E-02 0.12279610E+03</pdfrwt>
<totfact> 0.85499890E+03</totfact>
</mgrwt>
</event>
<event>
 8    1  0.1893090E-003  0.1127197E+03  0.7546771E-02  0.1256506E+00
          2   -1    0    0  501    0  0.00000000000E+00  0.00000000000E+00  0.87595857944E+03  0.87595857944E+03  0.00000000000E+00 0. -1.
         -2   -1    0    0    0  501 -0.00000000000E+00 -0.00000000000E+00 -0.32916922934E+02  0.32916922934E+02  0.00000000000E+00 0.  1.
         23    2    1    2    0    0  0.56289036064E+02 -0.28450483301E+02  0.77723722116E+02  0.13530115954E+03  0.91035933639E+02 0.  0.
         23    2    1    2    0    0 -0.56289036064E+02  0.28450483301E+02  0.76531793439E+03  0.77357434283E+03  0.93422896561E+02 0.  0.
          5    1    3    3  502    0 -0.17406165537E+02 -0.28913215808E+02  0.39441677642E+02  0.52121824434E+02  0.47000000000E+01 0. -1.
         -5    1    4    4    0  503 -0.49589462377E+02 -0.24813010714E+02  0.29723463874E+03  0.30239927372E+03  0.47000000000E+01 0.  1.
          5    1    4    4  503    0 -0.66995736866E+01  0.53263494015E+02  0.46808329565E+03  0.47117506911E+03  0.47000000000E+01 0. -1.
         -5    1    3    3    0  502  0.73695201601E+02  0.46273250692E+00  0.38282044474E+02  0.83179335111E+02  0.47000000000E+01 0.  1.
<mgrwt>
<rscale>  0 0.11222383E+03</rscale>
<asrwt>0</asrwt>
<pdfrwt beam="1">  1        2 0.13476284E+00 0.11271967E+03</pdfrwt>
<pdfrwt beam="2">  1       -2 0.50641426E-02 0.11271967E+03</pdfrwt>
<totfact> 0.58217165E+03</totfact>
</mgrwt>
</event>
<event>
 8    1  0.1893090E-003  0.9484655E+02  0.7546771E-02  0.1292567E+00
          1   -1    0    0  501    0  0.00000000000E+00  0.00000000000E+00  0.39900645701E+03  0.39900645701E+03  0.00000000000E+00 0. -1.
         -1   -1    0    0    0  501 -0.00000000000E+00 -0.00000000000E+00 -0.23769099829E+02  0.23769099829E+02  0.00000000000E+00 0.  1.
         23    2    1    2    0    0 -0.17756175550E+01  0.14991979568E+02  0.13351487104E+03  0.16377450618E+03  0.93637363355E+02 0.  0.
         23    2    1    2    0    0  0.17756175550E+01 -0.14991979568E+02  0.24172248614E+03  0.25900105066E+03  0.91781652135E+02 0.  0.
          5    1    3    3  502    0 -0.45373119848E+02 -0.57538287922E+01  0.72098948037E+02  0.85511255741E+02  0.47000000000E+01 0. -1.
         -5    1    4    4    0  503  0.29393203769E+02 -0.25747517006E+02  0.44079911236E+02  0.59093346786E+02  0.47000000000E+01 0.  1.
          5    1    4    4  503    0 -0.27617586214E+02  0.10755537438E+02  0.19764257490E+03  0.19990770387E+03  0.47000000000E+01 0. -1.
         -5    1    3    3    0  502  0.43597502293E+02  0.20745808360E+02  0.61415923008E+02  0.78263250441E+02  0.47000000000E+01 0.  1.
<mgrwt>
<rscale>  0 0.94385300E+02</rscale>
<asrwt>0</asrwt>
<pdfrwt beam="1">  1        1 0.61385604E-01 0.94846550E+02</pdfrwt>
<pdfrwt beam="2">  1       -1 0.36567849E-02 0.94846550E+02</pdfrwt>
<totfact> 0.15574671E+04</totfact>
</mgrwt>
</event>
<event>
 8    1  0.1893090E-003  0.1057624E+03  0.7546771E-02  0.1269127E+00
         -1   -1    0    0    0  501 -0.00000000000E+00  0.00000000000E+00  0.26663413350E+02  0.26663413350E+02  0.00000000000E+00 0.  1.
          1   -1    0    0  501    0  0.00000000000E+00 -0.00000000000E+00 -0.72877342580E+03  0.72877342580E+03  0.00000000000E+00 0. -1.
         23    2    1    2    0    0  0.24804170896E+02 -0.48238022198E+02 -0.10436847674E+03  0.14858824296E+03  0.90793905803E+02 0.  0.
         23    2    1    2    0    0 -0.24804170896E+02  0.48238022198E+02 -0.59774153571E+03  0.60684859618E+03  0.89599785154E+02 0.  0.
          5    1    4    4  502    0  0.36312824686E+01  0.68712286332E+02 -0.42003304791E+03  0.42565762749E+03  0.47000000000E+01 0. -1.
         -5    1    3    3    0  503 -0.21198620853E+02 -0.51846973073E+02 -0.38914402747E+02  0.68366006787E+02  0.47000000000E+01 0.  1.
          5    1    3    3  503    0  0.46002791749E+02  0.36089508748E+01 -0.65454073990E+02  0.80222236176E+02  0.47000000000E+01 0. -1.
         -5    1    4    4    0  502 -0.28435453365E+02 -0.20474264134E+02 -0.17770848780E+03  0.18119096869E+03  0.47000000000E+01 0.  1.
<mgrwt>
<rscale>  0 0.10550564E+03</rscale>
<asrwt>0</asrwt>
<pdfrwt beam="1">  1        1 0.11211899E+00 0.10576241E+03</pdfrwt>
<pdfrwt beam="2">  1       -1 0.41020637E-02 0.10576241E+03</pdfrwt>
<totfact> 0.59996566E+03</totfact>
</mgrwt>
</event>
<event>
 7    1  0.1893090E-003  0.1582585E+03  0.7546771E-02  0.1199410E+00
          2   -1    0    0  501    0  0.00000000000E+00  0.00000000000E+00  0.84221592856E+03  0.84221592856E+03  0.00000000000E+00 0. -1.
         -2   -1    0    0    0  501 -0.00000000000E+00 -0.00000000000E+00 -0.24900257885E+02  0.24900257885E+02  0.00000000000E+00 0.  1.
         23    2    1    2    0    0  0.37700531338E+01 -0.92360186394E+02  0.34057259732E+03  0.36479189348E+03  0.92405704208E+02 0.  0.
          5    1    1    2  502    0 -0.12312725005E+02  0.12390050160E+03  0.39424551780E+03  0.41346651109E+03  0.47000000000E+01 0. -1.
         -5    1    1    2    0  502  0.85426718712E+01 -0.31540315211E+02  0.82497555560E+02  0.88857781875E+02  0.47000000000E+01 0.  1.
          5    1    3    3  503    0  0.33110927184E+02 -0.96426250379E+00  0.11049080996E+03  0.11544510551E+03  0.47000000000E+01 0. -1.
         -5    1    3    3    0  503 -0.29340874050E+02 -0.91395923890E+02  0.23008178737E+03  0.24934678797E+03  0.47000000000E+01 0.  1.
<mgrwt>
<rscale>  0 0.15086798E+03</rscale>
<asrwt>0</asrwt>
<pdfrwt beam="1">  1        2 0.12957166E+00 0.15825845E+03</pdfrwt>
<pdfrwt beam="2">  1       -2 0.38308095E-02 0.15825845E+03</pdfrwt>
<totfact> 0.94476788E+03</totfact>
</mgrwt>
</event>
<event>
 8    1  0.1893090E-003  0.1090609E+03  0.7546771E-02  0.1266458E+00
         -1   -1    0    0    0  501 -0.00000000000E+00  0.00000000000E+00  0.62551215894E+02  0.62551215894E+02  0.00000000000E+00 0.  1.
          1   -1    0    0  501    0  0.00000000000E+00 -0.00000000000E+00 -0.24527984700E+03  0.24527984700E+03  0.00000000000E+00 0. -1.
         23    2    1    2    0    0  0.42928953837E+02  0.34765257991E+02 -0.67834802890E+01  0.10082628828E+03  0.84073816156E+02 0.  0.
         23    2    1    2    0    0 -0.42928953837E+02 -0.34765257991E+02 -0.17594515082E+03  0.20700477461E+03  0.94035963202E+02 0.  0.
          5    1    3    3  502    0 -0.13053888590E+02  0.40537251893E+02  0.49937658409E+01  0.43135837718E+02  0.47000000000E+01 0. -1.
         -5    1    3    3    0  502  0.55982842427E+02 -0.57719939016E+01 -0.11777246130E+02  0.57690450564E+02  0.47000000000E+01 0.  1.
          5    1    4    4  503    0 -0.71140359294E+02 -0.11918567440E+02 -0.12218035984E+03  0.14196173182E+03  0.47000000000E+01 0. -1.
         -5    1    4    4    0  503  0.28211405457E+02 -0.22846690551E+02 -0.53764790982E+02  0.65043042797E+02  0.47000000000E+01 0.  1.
<mgrwt>
<rscale>  0 0.10688062E+03</rscale>
<asrwt>0</asrwt>
<pdfrwt beam="1">  1        1 0.37735361E-01 0.10906090E+03</pdfrwt>
<pdfrwt beam="2">  1       -1 0.96232641E-02 0.10906090E+03</pdfrwt>
<totfact> 0.68560458E+03</totfact>
</mgrwt>
</event>
<event>
 8    1  0.1893090E-003  0.1058240E+03  0.7546771E-02  0.1268744E+00
         -2   -1    0    0    0  501 -0.00000000000E+00  0.00000000000E+00  0.69399411352E+02  0.69399411352E+02  0.00000000000E+00 0.  1.
          2   -1    0    0  501    0  0.00000000000E+00 -0.00000000000E+00 -0.18401768210E+03  0.18401768210E+03  0.00000000000E+00 0. -1.
         23    2    1    2    0    0  0.36877392448E+02 -0.37484470729E+02 -0.12012716673E+02  0.10601754371E+03  0.91270951524E+02 0.  0.
         23    2    1    2    0    0 -0.36877392448E+02  0.37484470729E+02 -0.10260555407E+03  0.14739954974E+03  0.91835177999E+02 0.  0.
          5    1    4    4  502    0  0.11497317582E+02  0.30241079900E+02 -0.91299630645E+02  0.96976408373E+02  0.47000000000E+01 0. -1.
         -5    1    3    3    0  503 -0.12602269244E+02 -0.33120870433E+02 -0.35933173142E+02  0.50686212922E+02  0.47000000000E+01 0.  1.
          5    1    3    3  503    0  0.49479661692E+02 -0.43636002957E+01  0.23920456469E+02  0.55331330785E+02  0.47000000000E+01 0. -1.
         -5    1    4    4    0  502 -0.48374710029E+02  0.72433908290E+01 -0.11305923430E+02  0.50423141371E+02  0.47000000000E+01 0.  1.
<mgrwt>
<rscale>  0 0.10570151E+03</rscale>
<asrwt>0</asrwt>
<pdfrwt beam="1">  1        2 0.28310412E-01 0.10582404E+03</pdfrwt>
<pdfrwt beam="2">  1       -2 0.10676833E-01 0.10582404E+03</pdfrwt>
<totfact> 0.10306568E+04</totfact>
</mgrwt>
</event>
<event>
 8    1  0.1893090E-003  0.9520296E+02  0.7546771E-02  0.1293066E+00
         -1   -1    0    0    0  501 -0.00000000000E+00  0.00000000000E+00  0.23889635953E+03  0.23889635953E+03  0.00000000000E+00 0.  1.
          1   -1    0    0  501    0  0.00000000000E+00 -0.00000000000E+00 -0.40265118330E+02  0.40265118330E+02  0.00000000000E+00 0. -1.
         23    2    1    2    0    0  0.21877335121E+02  0.18910898429E+02  0.14490237227E+03  0.17337906615E+03  0.90704813643E+02 0.  0.
         23    2    1    2    0    0 -0.21877335121E+02 -0.18910898429E+02  0.53728868926E+02  0.10578241171E+03  0.86411153210E+02 0.  0.
          5    1    4    4  502    0 -0.32644137500E+02 -0.48751418567E+02  0.38028535134E+02  0.70075673453E+02  0.47000000000E+01 0. -1.
         -5    1    4    4    0  502  0.10766802379E+02  0.29840520138E+02  0.15700333792E+02  0.35706738254E+02  0.47000000000E+01 0.  1.
          5    1    3    3  503    0 -0.50185593401E+01 -0.32586023991E+02  0.31335878839E+02  0.45728133572E+02  0.47000000000E+01 0. -1.
         -5    1    3    3    0  503  0.26895894461E+02  0.51496922420E+02  0.11356649343E+03  0.12765093258E+03  0.47000000000E+01 0.  1.
<mgrwt>
<rscale>  0 0.94165766E+02</rscale>
<asrwt>0</asrwt>
<pdfrwt beam="1">  1        1 0.61946337E-02 0.95202957E+02</pdfrwt>
<pdfrwt beam="2">  1       -1 0.36753285E-01 0.95202957E+02</pdfrwt>
<totfact> 0.81213594E+03</totfact>
</mgrwt>
</event>
<event>
 8    1  0.1893090E-003  0.1016072E+03  0.7546771E-02  0.1277053E+00
          2   -1    0    0  501    0  0.00000000000E+00  0.00000000000E+00  0.11699903128E+03  0.11699903128E+03  0.00000000000E+00 0. -1.
         -2   -1    0    0    0  501 -0.00000000000E+00 -0.00000000000E+00 -0.94559976909E+02  0.94559976909E+02  0.00000000000E+00 0.  1.
         23    2    1    2    0    0 -0.25590897884E+02  0.35008912944E+02  0.38940797127E+02  0.10881360867E+03  0.91888506954E+02 0.  0.
         23    2    1    2    0    0  0.25590897884E+02 -0.35008912944E+02 -0.16501742760E+02  0.10274539952E+03  0.91672196264E+02 0.  0.
          5    1    3    3  502    0  0.34453685586E+02  0.10632167202E+02  0.17811639325E+02  0.40490047237E+02  0.47000000000E+01 0. -1.
         -5    1    3    3    0  502 -0.60044583469E+02  0.24376745742E+02  0.21129157802E+02  0.68323561429E+02  0.47000000000E+01 0.  1.
          5    1    4    4  503    0  0.56929239739E+02 -0.20986358274E+02 -0.26943264093E+02  0.66553700504E+02  0.47000000000E+01 0. -1.
         -5    1    4    4    0  503 -0.31338341855E+02 -0.14022554669E+02  0.10441521332E+02  0.36191699013E+02  0.47000000000E+01 0.  1.
<mgrwt>
<rscale>  0 0.10155823E+03</rscale>
<asrwt>0</asrwt>
<pdfrwt beam="1">  1        2 0.17999851E-01 0.10160716E+03</pdfrwt>
<pdfrwt beam="2">  1       -2 0.14547689E-01 0.10160716E+03</pdfrwt>
<totfact> 0.10357026E+04</totfact>
</mgrwt>
</event>
<event>
 8    1  0.1893090E-003  0.1002350E+03  0.7546771E-02  0.1279909E+00
         -1   -1    0    0    0  501 -0.00000000000E+00  0.00000000000E+00  0.18320573026E+02  0.18320573026E+02  0.00000000000E+00 0.  1.
          1   -1    0    0  501    0  0.00000000000E+00 -0.00000000000E+00 -0.55220600257E+03  0.55220600257E+03  0.00000000000E+00 0. -1.
         23    2    1    2    0    0  0.18791646883E+02  0.39470442445E+02 -0.29358047795E+03  0.31015468770E+03  0.89974393286E+02 0.  0.
         23    2    1    2    0    0 -0.18791646883E+02 -0.39470442445E+02 -0.24030495160E+03  0.26037188790E+03  0.90199824991E+02 0.  0.
          5    1    3    3  502    0  0.28166869383E+02 -0.50150732232E+01 -0.23017205840E+03  0.23199092646E+03  0.47000000000E+01 0. -1.
         -5    1    4    4    0  503  0.26662357085E+02  0.13325081288E+02 -0.64551602820E+02  0.71256147126E+02  0.47000000000E+01 0.  1.
          5    1    4    4  503    0 -0.45454003968E+02 -0.52795523733E+02 -0.17575334878E+03  0.18911574078E+03  0.47000000000E+01 0. -1.
         -5    1    3    3    0  502 -0.93752225001E+01  0.44485515668E+02 -0.63408419549E+02  0.78163761238E+02  0.47000000000E+01 0.  1.
<mgrwt>
<rscale>  0 0.10018423E+03</rscale>
<asrwt>0</asrwt>
<pdfrwt beam="1">  1        1 0.84954751E-01 0.10023498E+03</pdfrwt>
<pdfrwt beam="2">  1       -1 0.28185503E-02 0.10023498E+03</pdfrwt>
<totfact> 0.15068056E+04</totfact>
</mgrwt>
</event>
<event>
 8    1  0.1893090E-003  0.9768498E+02  0.7546771E-02  0.1286001E+00
         -2   -1    0    0    0  501 -0.00000000000E+00  0.00000000000E+00  0.25738513221E+03  0.25738513221E+03  0.00000000000E+00 0.  1.
          2   -1    0    0  501    0  0.00000000000E+00 -0.00000000000E+00 -0.36548415044E+02  0.36548415044E+02  0.00000000000E+00 0. -1.
         23    2    1    2    0    0  0.19457513656E+02 -0.60890900836E+01  0.10987499708E+03  0.14609965855E+03  0.94111228813E+02 0.  0.
         23    2    1    2    0    0 -0.19457513656E+02  0.60890900836E+01  0.11096172008E+03  0.14783388870E+03  0.95533677151E+02 0.  0.
          5    1    4    4  502    0 -0.34056469883E+01 -0.41108634127E+02  0.76525857479E+02  0.87062133526E+02  0.47000000000E+01 0. -1.
         -5    1    4    4    0  502 -0.16051866667E+02  0.47197724211E+02  0.34435862605E+02  0.60771755179E+02  0.47000000000E+01 0.  1.
          5    1    3    3  503    0 -0.27194685214E+02 -0.32334848327E+02  0.46218828025E+02  0.62796205174E+02  0.47000000000E+01 0. -1.
         -5    1    3    3    0  503  0.46652198870E+02  0.26245758244E+02  0.63656169055E+02  0.83303453373E+02  0.47000000000E+01 0.  1.
<mgrwt>
<rscale>  0 0.97335442E+02</rscale>
<asrwt>0</asrwt>
<pdfrwt beam="1">  1        2 0.56228332E-02 0.97684980E+02</pdfrwt>
<pdfrwt beam="2">  1       -2 0.39597712E-01 0.97684980E+02</pdfrwt>
<totfact> 0.74724912E+03</totfact>
</mgrwt>
</event>
<event>
 8    1  0.1893090E-003  0.1944512E+03  0.7546771E-02  0.1155140E+00
         -1   -1    0    0    0  501 -0.00000000000E+00  0.00000000000E+00  0.39296493087E+02  0.39296493087E+02  0.00000000000E+00 0.  1.
          1   -1    0    0  501    0  0.00000000000E+00 -0.00000000000E+00 -0.10089277148E+04  0.10089277148E+04  0.00000000000E+00 0. -1.
         23    2    1    2    0    0  0.14295089064E+03 -0.89669430791E+02 -0.61693606299E+03  0.64685499888E+03  0.96621528742E+02 0.  0.
         23    2    1    2    0    0 -0.14295089064E+03  0.89669430791E+02 -0.35269515876E+03  0.40136920904E+03  0.90707237844E+02 0.  0.
          5    1    3    3  502    0  0.56134361930E+02 -0.89687339140E+02 -0.29713501712E+03  0.31544602357E+03  0.47000000000E+01 0. -1.
         -5    1    4    4    0  503 -0.11160925073E+03  0.32790295780E+02 -0.28289423380E+03  0.30591349408E+03  0.47000000000E+01 0.  1.
          5    1    4    4  503    0 -0.31341639905E+02  0.56879135011E+02 -0.69800924962E+02  0.95455714953E+02  0.47000000000E+01 0. -1.
         -5    1    3    3    0  502  0.86816528706E+02  0.17908349559E-01 -0.31980104587E+03  0.33140897531E+03  0.47000000000E+01 0.  1.
<mgrwt>
<rscale>  0 0.19372973E+03</rscale>
<asrwt>0</asrwt>
<pdfrwt beam="1">  1        1 0.15521963E+00 0.19445124E+03</pdfrwt>
<pdfrwt beam="2">  1       -1 0.60456152E-02 0.19445124E+03</pdfrwt>
<totfact> 0.20725123E+03</totfact>
</mgrwt>
</event>
<event>
 8    1  0.1893090E-003  0.2021119E+03  0.7546771E-02  0.1151997E+00
         -2   -1    0    0    0  501 -0.00000000000E+00  0.00000000000E+00  0.19942411151E+02  0.19942411151E+02  0.00000000000E+00 0.  1.
          2   -1    0    0  501    0  0.00000000000E+00 -0.00000000000E+00 -0.18738403750E+04  0.18738403750E+04  0.00000000000E+00 0. -1.
         23    2    1    2    0    0 -0.41933048536E+02 -0.15295080003E+03 -0.10315421564E+04  0.10511557657E+04  0.12528725150E+03 0.  0.
         23    2    1    2    0    0  0.41933048536E+02  0.15295080003E+03 -0.82235580743E+03  0.84262702051E+03  0.92730221001E+02 0.  0.
          5    1    3    3  502    0 -0.32267215198E+02  0.68761702548E+01 -0.87728404567E+02  0.93844647487E+02  0.47000000000E+01 0. -1.
         -5    1    4    4    0  503 -0.23532448314E+02  0.42885124412E+02 -0.34022947918E+03  0.34376023406E+03  0.47000000000E+01 0.  1.
          5    1    4    4  503    0  0.65465496849E+02  0.11006567561E+03 -0.48212632825E+03  0.49886678645E+03  0.47000000000E+01 0. -1.
         -5    1    3    3    0  502 -0.96658333376E+01 -0.15982697028E+03 -0.94381375187E+03  0.95731111818E+03  0.47000000000E+01 0. -1.
<mgrwt>
<rscale>  0 0.19734681E+03</rscale>
<asrwt>0</asrwt>
<pdfrwt beam="1">  1        2 0.28828306E+00 0.20211191E+03</pdfrwt>
<pdfrwt beam="2">  1       -2 0.30680640E-02 0.20211191E+03</pdfrwt>
<totfact> 0.35424008E+03</totfact>
</mgrwt>
</event>
<event>
 8    1  0.1893090E-003  0.1086196E+03  0.7546771E-02  0.1263677E+00
         -1   -1    0    0    0  501 -0.00000000000E+00  0.00000000000E+00  0.97648412092E+02  0.97648412092E+02  0.00000000000E+00 0.  1.
          1   -1    0    0  501    0  0.00000000000E+00 -0.00000000000E+00 -0.34767259556E+03  0.34767259556E+03  0.00000000000E+00 0. -1.
         23    2    1    2    0    0  0.19256752232E+02 -0.54990130429E+02  0.55112566090E+02  0.12180153624E+03  0.91670509646E+02 0.  0.
         23    2    1    2    0    0 -0.19256752232E+02  0.54990130429E+02 -0.30513674956E+03  0.32351947141E+03  0.90341991898E+02 0.  0.
          5    1    3    3  502    0  0.37439982614E+02 -0.32660026784E+02 -0.95955115314E+01  0.50819223619E+02  0.47000000000E+01 0. -1.
         -5    1    4    4    0  503  0.14488660996E+02  0.32141471544E+02 -0.33691620869E+02  0.48991946351E+02  0.47000000000E+01 0.  1.
          5    1    4    4  503    0 -0.33745413228E+02  0.22848658885E+02 -0.27144512869E+03  0.27452752506E+03  0.47000000000E+01 0. -1.
         -5    1    3    3    0  502 -0.18183230382E+02 -0.22330103645E+02  0.64708077621E+02  0.70982312623E+02  0.47000000000E+01 0.  1.
<mgrwt>
<rscale>  0 0.10833881E+03</rscale>
<asrwt>0</asrwt>
<pdfrwt beam="1">  1        1 0.53488092E-01 0.10861961E+03</pdfrwt>
<pdfrwt beam="2">  1       -1 0.15022833E-01 0.10861961E+03</pdfrwt>
<totfact> 0.22532432E+03</totfact>
</mgrwt>
</event>
<event>
 8    1  0.1893090E-003  0.1049250E+03  0.7546771E-02  0.1270302E+00
         -1   -1    0    0    0  501 -0.00000000000E+00  0.00000000000E+00  0.84494382224E+03  0.84494382224E+03  0.00000000000E+00 0.  1.
          1   -1    0    0  501    0  0.00000000000E+00 -0.00000000000E+00 -0.16970795087E+02  0.16970795087E+02  0.00000000000E+00 0. -1.
         23    2    1    2    0    0  0.36037983099E+01 -0.52519555532E+02  0.62179060781E+03  0.63056977212E+03  0.90682889646E+02 0.  0.
         23    2    1    2    0    0 -0.36037983099E+01  0.52519555532E+02  0.20618241934E+03  0.23134484520E+03  0.90763187923E+02 0.  0.
          5    1    3    3  502    0 -0.48993551483E+01 -0.76660980514E+02  0.40739729564E+03  0.41460288966E+03  0.47000000000E+01 0. -1.
         -5    1    3    3    0  502  0.85031534582E+01  0.24141424982E+02  0.21439331217E+03  0.21596688247E+03  0.47000000000E+01 0.  1.
          5    1    4    4  503    0  0.31709020829E+02  0.34614511616E+02  0.17347290697E+03  0.17977365176E+03  0.47000000000E+01 0. -1.
         -5    1    4    4    0  503 -0.35312819139E+02  0.17905043916E+02  0.32709512368E+02  0.51571193437E+02  0.47000000000E+01 0.  1.
<mgrwt>
<rscale>  0 0.10490759E+03</rscale>
<asrwt>0</asrwt>
<pdfrwt beam="1">  1        1 0.26108922E-02 0.10492496E+03</pdfrwt>
<pdfrwt beam="2">  1       -1 0.12999132E+00 0.10492496E+03</pdfrwt>
<totfact> 0.21557227E+03</totfact>
</mgrwt>
</event>
<event>
 8    1  0.1893090E-003  0.1066971E+03  0.7546771E-02  0.1267553E+00
         -1   -1    0    0    0  501 -0.00000000000E+00  0.00000000000E+00  0.39230805501E+02  0.39230805501E+02  0.00000000000E+00 0.  1.
          1   -1    0    0  501    0  0.00000000000E+00 -0.00000000000E+00 -0.29814124468E+03  0.29814124468E+03  0.00000000000E+00 0. -1.
         23    2    1    2    0    0  0.50367160984E+02  0.20494020195E+02 -0.96380584400E+02  0.14378278380E+03  0.91800959133E+02 0.  0.
         23    2    1    2    0    0 -0.50367160984E+02 -0.20494020195E+02 -0.16252985478E+03  0.19358926638E+03  0.90022189460E+02 0.  0.
          5    1    4    4  502    0 -0.20383039873E+02 -0.54395312207E+02 -0.10657492180E+03  0.12146860607E+03  0.47000000000E+01 0. -1.
         -5    1    3    3    0  503  0.67310780449E+02  0.35767784976E+02 -0.48307361201E+02  0.90364632202E+02  0.47000000000E+01 0.  1.
          5    1    3    3  503    0 -0.16943619464E+02 -0.15273764781E+02 -0.48073223198E+02  0.53418151595E+02  0.47000000000E+01 0. -1.
         -5    1    4    4    0  502 -0.29984121112E+02  0.33901292012E+02 -0.55954932973E+02  0.72120660306E+02  0.47000000000E+01 0.  1.
<mgrwt>
<rscale>  0 0.10631341E+03</rscale>
<asrwt>0</asrwt>
<pdfrwt beam="1">  1        1 0.45867881E-01 0.10669710E+03</pdfrwt>
<pdfrwt beam="2">  1       -1 0.60355090E-02 0.10669710E+03</pdfrwt>
<totfact> 0.10826954E+04</totfact>
</mgrwt>
</event>
<event>
 8    1  0.1893090E-003  0.1175713E+03  0.7546771E-02  0.1247728E+00
          3   -1    0    0  501    0  0.00000000000E+00  0.00000000000E+00  0.69685126568E+03  0.69685126568E+03  0.00000000000E+00 0. -1.
         -3   -1    0    0    0  501 -0.00000000000E+00 -0.00000000000E+00 -0.20079493885E+02  0.20079493885E+02  0.00000000000E+00 0.  1.
         23    2    1    2    0    0  0.69644392632E+02  0.22179134278E+02  0.28177752689E+03  0.30481006755E+03  0.90378908999E+02 0.  0.
         23    2    1    2    0    0 -0.69644392632E+02 -0.22179134278E+02  0.39499424490E+03  0.41212069202E+03  0.92091019456E+02 0.  0.
          5    1    3    3  502    0  0.30563862503E+02  0.18156400450E+02  0.25387262586E+03  0.25639267682E+03  0.47000000000E+01 0. -1.
         -5    1    3    3    0  502  0.39080530129E+02  0.40227338278E+01  0.27904901039E+02  0.48417390725E+02  0.47000000000E+01 0.  1.
          5    1    4    4  503    0 -0.91893480108E+02 -0.12738081466E+02  0.30684442787E+03  0.32059673005E+03  0.47000000000E+01 0. -1.
         -5    1    4    4    0  503  0.22249087476E+02 -0.94410528117E+01  0.88149817030E+02  0.91523961967E+02  0.47000000000E+01 0.  1.
<mgrwt>
<rscale>  0 0.11723582E+03</rscale>
<asrwt>0</asrwt>
<pdfrwt beam="1">  1        3 0.10720787E+00 0.11757130E+03</pdfrwt>
<pdfrwt beam="2">  1       -3 0.30891534E-02 0.11757130E+03</pdfrwt>
<totfact> 0.84943195E+02</totfact>
</mgrwt>
</event>
<event>
 8    1  0.1893090E-003  0.1106032E+03  0.7546771E-02  0.1259524E+00
         -1   -1    0    0    0  501 -0.00000000000E+00  0.00000000000E+00  0.14065020767E+02  0.14065020767E+02  0.00000000000E+00 0.  1.
          1   -1    0    0  501    0  0.00000000000E+00 -0.00000000000E+00 -0.97834031518E+03  0.97834031518E+03  0.00000000000E+00 0. -1.
         23    2    1    2    0    0 -0.12195020926E+02  0.63443953565E+02 -0.64860017272E+03  0.65796295445E+03  0.89773111776E+02 0.  0.
         23    2    1    2    0    0  0.12195020926E+02 -0.63443953565E+02 -0.31567512169E+03  0.33444238150E+03  0.89593918907E+02 0.  0.
          5    1    4    4  502    0  0.12157782174E+02 -0.40468007952E+02 -0.30621837857E+03  0.30915571596E+03  0.47000000000E+01 0. -1.
         -5    1    4    4    0  502  0.37238752085E-01 -0.22975945612E+02 -0.94567431219E+01  0.25286665537E+02  0.47000000000E+01 0.  1.
          5    1    3    3  503    0 -0.22996943524E+02 -0.15822806812E+02 -0.23243016683E+03  0.23414758824E+03  0.47000000000E+01 0. -1.
         -5    1    3    3    0  503  0.10801922597E+02  0.79266760377E+02 -0.41617000589E+03  0.42381536621E+03  0.47000000000E+01 0.  1.
<mgrwt>
<rscale>  0 0.11056682E+03</rscale>
<asrwt>0</asrwt>
<pdfrwt beam="1">  1        1 0.15051395E+00 0.11060319E+03</pdfrwt>
<pdfrwt beam="2">  1       -1 0.21638486E-02 0.11060319E+03</pdfrwt>
<totfact> 0.96635016E+03</totfact>
</mgrwt>
</event>
<event>
 8    1  0.1893090E-003  0.1003499E+03  0.7546771E-02  0.1284143E+00
         -1   -1    0    0    0  501 -0.00000000000E+00  0.00000000000E+00  0.13748225917E+02  0.13748225917E+02  0.00000000000E+00 0.  1.
          1   -1    0    0  501    0  0.00000000000E+00 -0.00000000000E+00 -0.79339393783E+03  0.79339393783E+03  0.00000000000E+00 0. -1.
         23    2    1    2    0    0  0.16176853358E+01  0.17040064118E+02 -0.24693725208E+03  0.26654852137E+03  0.98879356221E+02 0.  0.
         23    2    1    2    0    0 -0.16176853358E+01 -0.17040064118E+02 -0.53270845983E+03  0.54059364238E+03  0.90389171444E+02 0.  0.
          5    1    4    4  502    0  0.43683385504E+02 -0.38095015590E+01 -0.28398817017E+03  0.28739192972E+03  0.47000000000E+01 0. -1.
         -5    1    3    3    0  503 -0.38645605898E+02  0.38186176758E+02 -0.12846135029E+03  0.13955671058E+03  0.47000000000E+01 0.  1.
          5    1    3    3  503    0  0.40263291234E+02 -0.21146112640E+02 -0.11847590179E+03  0.12699181079E+03  0.47000000000E+01 0. -1.
         -5    1    4    4    0  502 -0.45301070840E+02 -0.13230562559E+02 -0.24872028966E+03  0.25320171266E+03  0.47000000000E+01 0.  1.
<mgrwt>
<rscale>  0 0.98192770E+02</rscale>
<asrwt>0</asrwt>
<pdfrwt beam="1">  1        1 0.12206063E+00 0.10034993E+03</pdfrwt>
<pdfrwt beam="2">  1       -1 0.21151113E-02 0.10034993E+03</pdfrwt>
<totfact> 0.13755164E+04</totfact>
</mgrwt>
</event>
<event>
 8    1  0.1893090E-003  0.1051193E+03  0.7546771E-02  0.1270955E+00
          1   -1    0    0  501    0  0.00000000000E+00  0.00000000000E+00  0.62143849717E+02  0.62143849717E+02  0.00000000000E+00 0. -1.
         -1   -1    0    0    0  501 -0.00000000000E+00 -0.00000000000E+00 -0.34044201804E+03  0.34044201804E+03  0.00000000000E+00 0.  1.
         23    2    1    2    0    0 -0.24380248369E+02  0.40914538162E+02 -0.27907431509E+03  0.29746368942E+03  0.91289524246E+02 0.  0.
         23    2    1    2    0    0  0.24380248369E+02 -0.40914538162E+02  0.77614676180E+00  0.10512217834E+03  0.93710586551E+02 0.  0.
          5    1    4    4  502    0  0.51636329657E+02 -0.43990975186E+02 -0.19444562156E+02  0.70722679783E+02  0.47000000000E+01 0. -1.
         -5    1    3    3    0  503 -0.53519618344E+02  0.87850548217E+01 -0.19856862745E+03  0.20589588763E+03  0.47000000000E+01 0.  1.
          5    1    3    3  503    0  0.29139369974E+02  0.32129483340E+02 -0.80505687641E+02  0.91567801790E+02  0.47000000000E+01 0. -1.
         -5    1    4    4    0  502 -0.27256081287E+02  0.30764370243E+01  0.20220708918E+02  0.34399498558E+02  0.47000000000E+01 0.  1.
<mgrwt>
<rscale>  0 0.10457702E+03</rscale>
<asrwt>0</asrwt>
<pdfrwt beam="1">  1        1 0.95605923E-02 0.10511931E+03</pdfrwt>
<pdfrwt beam="2">  1       -1 0.52375695E-01 0.10511931E+03</pdfrwt>
<totfact> 0.24538482E+03</totfact>
</mgrwt>
</event>
<event>
 8    1  0.1893090E-003  0.1242382E+03  0.7546771E-02  0.1243996E+00
          2   -1    0    0  501    0  0.00000000000E+00  0.00000000000E+00  0.83868852576E+03  0.83868852576E+03  0.00000000000E+00 0. -1.
         -2   -1    0    0    0  501 -0.00000000000E+00 -0.00000000000E+00 -0.15665214939E+03  0.15665214939E+03  0.00000000000E+00 0.  1.
         23    2    1    2    0    0 -0.22248105322E+02  0.47494813568E+02 -0.12799691484E+03  0.17837696374E+03  0.11262502156E+03 0.  0.
         23    2    1    2    0    0  0.22248105322E+02 -0.47494813568E+02  0.81003329121E+03  0.81696371141E+03  0.92331129004E+02 0.  0.
          5    1    4    4  502    0 -0.19826858986E+02 -0.58506070376E+02  0.43555023861E+03  0.43993427346E+03  0.47000000000E+01 0. -1.
         -5    1    4    4    0  502  0.42074964307E+02  0.11011256808E+02  0.37448305260E+03  0.37702943795E+03  0.47000000000E+01 0.  1.
          5    1    3    3  503    0 -0.16190759366E+02 -0.18758397190E+02  0.83700160826E+01  0.26573771340E+02  0.47000000000E+01 0. -1.
         -5    1    3    3    0  503 -0.60573459560E+01  0.66253210758E+02 -0.13636693092E+03  0.15180319240E+03  0.47000000000E+01 0.  1.
<mgrwt>
<rscale>  0 0.11945647E+03</rscale>
<asrwt>0</asrwt>
<pdfrwt beam="1">  1        2 0.12902900E+00 0.12423820E+03</pdfrwt>
<pdfrwt beam="2">  1       -2 0.24100331E-01 0.12423820E+03</pdfrwt>
<totfact> 0.51514210E+02</totfact>
</mgrwt>
</event>
<event>
 8    1  0.1893090E-003  0.2234775E+03  0.7546771E-02  0.1131640E+00
          1   -1    0    0  501    0  0.00000000000E+00  0.00000000000E+00  0.22828982569E+04  0.22828982569E+04  0.00000000000E+00 0. -1.
         -1   -1    0    0    0  501 -0.00000000000E+00 -0.00000000000E+00 -0.33266092393E+02  0.33266092393E+02  0.00000000000E+00 0.  1.
         23    2    1    2    0    0  0.14181370707E+03  0.14675604391E+03  0.44499479749E+03  0.49795838801E+03  0.91069876792E+02 0.  0.
         23    2    1    2    0    0 -0.14181370707E+03 -0.14675604391E+03  0.18046373670E+04  0.18182059613E+04  0.86651181634E+02 0.  0.
          5    1    3    3  502    0  0.28200634289E+02  0.46585940235E+02  0.46991535091E+02  0.72082036403E+02  0.47000000000E+01 0. -1.
         -5    1    4    4    0  503 -0.78203930396E+01 -0.43630752291E+02  0.21352802487E+03  0.21813094346E+03  0.47000000000E+01 0.  1.
          5    1    4    4  503    0 -0.13399331403E+03 -0.10312529162E+03  0.15911093421E+04  0.16000750178E+04  0.47000000000E+01 0. -1.
         -5    1    3    3    0  502  0.11361307278E+03  0.10017010367E+03  0.39800326240E+03  0.42587635160E+03  0.47000000000E+01 0.  1.
<mgrwt>
<rscale>  0 0.22303519E+03</rscale>
<asrwt>0</asrwt>
<pdfrwt beam="1">  1        1 0.35121499E+00 0.22347749E+03</pdfrwt>
<pdfrwt beam="2">  1       -1 0.51178622E-02 0.22347749E+03</pdfrwt>
<totfact> 0.37834516E+02</totfact>
</mgrwt>
</event>
<event>
 8    1  0.1893090E-003  0.1061499E+03  0.7546771E-02  0.1268118E+00
          2   -1    0    0  501    0  0.00000000000E+00  0.00000000000E+00  0.43616179144E+03  0.43616179144E+03  0.00000000000E+00 0. -1.
         -2   -1    0    0    0  501 -0.00000000000E+00 -0.00000000000E+00 -0.25826740094E+02  0.25826740094E+02  0.00000000000E+00 0.  1.
         23    2    1    2    0    0  0.29817216392E+02 -0.46412454028E+02  0.22018247744E+03  0.24421384749E+03  0.90093826934E+02 0.  0.
         23    2    1    2    0    0 -0.29817216392E+02  0.46412454028E+02  0.19015257391E+03  0.21777468405E+03  0.90689742342E+02 0.  0.
          5    1    4    4  502    0 -0.23399871255E+02 -0.18133428370E+02  0.21133228466E+02  0.36675312467E+02  0.47000000000E+01 0. -1.
         -5    1    4    4    0  502 -0.64173451375E+01  0.64545882398E+02  0.16901934545E+03  0.18109937158E+03  0.47000000000E+01 0.  1.
          5    1    3    3  503    0  0.19388961869E+02  0.10369813845E+02  0.15658994908E+03  0.15819597667E+03  0.47000000000E+01 0. -1.
         -5    1    3    3    0  503  0.10428254523E+02 -0.56782267874E+02  0.63592528364E+02  0.86017870823E+02  0.47000000000E+01 0.  1.
<mgrwt>
<rscale>  0 0.10602255E+03</rscale>
<asrwt>0</asrwt>
<pdfrwt beam="1">  1        2 0.67101809E-01 0.10614995E+03</pdfrwt>
<pdfrwt beam="2">  1       -2 0.39733449E-02 0.10614995E+03</pdfrwt>
<totfact> 0.18514767E+04</totfact>
</mgrwt>
</event>
<event>
 8    1  0.1893090E-003  0.1422334E+03  0.7546771E-02  0.1211162E+00
          1   -1    0    0  501    0  0.00000000000E+00  0.00000000000E+00  0.27964887673E+03  0.27964887673E+03  0.00000000000E+00 0. -1.
         -1   -1    0    0    0  501 -0.00000000000E+00 -0.00000000000E+00 -0.15165457577E+03  0.15165457577E+03  0.00000000000E+00 0.  1.
         23    2    1    2    0    0  0.79430076274E+02  0.73037930405E+02  0.22089449588E+03  0.26141878443E+03  0.88891654536E+02 0.  0.
         23    2    1    2    0    0 -0.79430076274E+02 -0.73037930405E+02 -0.92900194918E+02  0.16988466807E+03  0.92664329352E+02 0.  0.
          5    1    4    4  502    0 -0.50821866216E+02 -0.52276020143E+02 -0.29446782847E+01  0.73119118553E+02  0.47000000000E+01 0. -1.
         -5    1    4    4    0  502 -0.28608210058E+02 -0.20761910262E+02 -0.89955516633E+02  0.96765549516E+02  0.47000000000E+01 0.  1.
          5    1    3    3  503    0  0.67178986584E+02  0.23394424225E+02  0.62156893523E+02  0.94582687294E+02  0.47000000000E+01 0. -1.
         -5    1    3    3    0  503  0.12251089690E+02  0.49643506180E+02  0.15873760236E+03  0.16683609713E+03  0.47000000000E+01 0.  1.
<mgrwt>
<rscale>  0 0.14162238E+03</rscale>
<asrwt>0</asrwt>
<pdfrwt beam="1">  1        1 0.43022904E-01 0.14223345E+03</pdfrwt>
<pdfrwt beam="2">  1       -1 0.23331473E-01 0.14223345E+03</pdfrwt>
<totfact> 0.14755655E+03</totfact>
</mgrwt>
</event>
<event>
 8    1  0.1893090E-003  0.9232232E+02  0.7546771E-02  0.1298095E+00
         -2   -1    0    0    0  501 -0.00000000000E+00  0.00000000000E+00  0.76215125843E+02  0.76215125843E+02  0.00000000000E+00 0.  1.
          2   -1    0    0  501    0  0.00000000000E+00 -0.00000000000E+00 -0.12474323184E+03  0.12474323184E+03  0.00000000000E+00 0. -1.
         23    2    1    2    0    0 -0.20777336263E+01  0.79389463634E+01  0.10132722205E+02  0.91575986063E+02  0.90642955147E+02 0.  0.
         23    2    1    2    0    0  0.20777336263E+01 -0.79389463634E+01 -0.58660828200E+02  0.10938237162E+03  0.91956873639E+02 0.  0.
          5    1    4    4  502    0 -0.78375069662E+01 -0.39196835802E+02  0.19648008909E+01  0.40296015869E+02  0.47000000000E+01 0. -1.
         -5    1    3    3    0  503  0.16241987524E+02 -0.25344004814E+02  0.34632434920E+02  0.46126091176E+02  0.47000000000E+01 0.  1.
          5    1    3    3  503    0 -0.18319721151E+02  0.33282951177E+02 -0.24499712715E+02  0.45449894887E+02  0.47000000000E+01 0. -1.
         -5    1    4    4    0  502  0.99152405925E+01  0.31257889439E+02 -0.60625629091E+02  0.69086355750E+02  0.47000000000E+01 0.  1.
<mgrwt>
<rscale>  0 0.91993404E+02</rscale>
<asrwt>0</asrwt>
<pdfrwt beam="1">  1        2 0.19191266E-01 0.92322318E+02</pdfrwt>
<pdfrwt beam="2">  1       -2 0.11725404E-01 0.92322318E+02</pdfrwt>
<totfact> 0.13472628E+04</totfact>
</mgrwt>
</event>
<event>
 8    1  0.1893090E-003  0.1147579E+03  0.7546771E-02  0.1252473E+00
         -1   -1    0    0    0  501 -0.00000000000E+00  0.00000000000E+00  0.55183926512E+02  0.55183926512E+02  0.00000000000E+00 0.  1.
          1   -1    0    0  501    0  0.00000000000E+00 -0.00000000000E+00 -0.30395532638E+03  0.30395532638E+03  0.00000000000E+00 0. -1.
         23    2    1    2    0    0  0.67071142325E+02 -0.17969032861E+02 -0.20856785465E+03  0.23754280020E+03  0.90025594481E+02 0.  0.
         23    2    1    2    0    0 -0.67071142325E+02  0.17969032861E+02 -0.40203545223E+02  0.12159645269E+03  0.91367105589E+02 0.  0.
          5    1    3    3  502    0  0.85940263585E+02 -0.70117409285E+01 -0.13158881775E+03  0.15739313954E+03  0.47000000000E+01 0. -1.
         -5    1    4    4    0  503 -0.23582314457E+02 -0.19264834012E+02  0.21286300148E+02  0.37449378615E+02  0.47000000000E+01 0.  1.
          5    1    4    4  503    0 -0.43488827869E+02  0.37233866873E+02 -0.61489845371E+02  0.84147074075E+02  0.47000000000E+01 0. -1.
         -5    1    3    3    0  502 -0.18869121260E+02 -0.10957291932E+02 -0.76979036898E+02  0.80149660669E+02  0.47000000000E+01 0.  1.
<mgrwt>
<rscale>  0 0.11449066E+03</rscale>
<asrwt>0</asrwt>
<pdfrwt beam="1">  1        1 0.46762358E-01 0.11475789E+03</pdfrwt>
<pdfrwt beam="2">  1       -1 0.84898349E-02 0.11475789E+03</pdfrwt>
<totfact> 0.63879828E+03</totfact>
</mgrwt>
</event>
<event>
 8    1  0.1893090E-003  0.1213987E+03  0.7546771E-02  0.1244239E+00
          1   -1    0    0  501    0  0.00000000000E+00  0.00000000000E+00  0.62471079894E+03  0.62471079894E+03  0.00000000000E+00 0. -1.
         -1   -1    0    0    0  501 -0.00000000000E+00 -0.00000000000E+00 -0.23183940057E+02  0.23183940057E+02  0.00000000000E+00 0.  1.
         23    2    1    2    0    0  0.68434274762E+02 -0.43136950325E+02  0.36289561858E+03  0.38015882843E+03  0.79268268561E+02 0.  0.
         23    2    1    2    0    0 -0.68434274762E+02  0.43136950325E+02  0.23863124031E+03  0.26773591057E+03  0.90518520287E+02 0.  0.
          5    1    4    4  502    0 -0.72360354403E+02  0.63945526109E+02  0.16781828919E+03  0.19367529369E+03  0.47000000000E+01 0.  1.
         -5    1    4    4    0  502  0.39260796418E+01 -0.20808575784E+02  0.70812951117E+02  0.74060616885E+02  0.47000000000E+01 0. -1.
          5    1    3    3  503    0  0.25027695780E+02 -0.39573919813E+02  0.29905154193E+03  0.30273155669E+03  0.47000000000E+01 0. -1.
         -5    1    3    3    0  503  0.43406578981E+02 -0.35630305111E+01  0.63844076653E+02  0.77427271739E+02  0.47000000000E+01 0.  1.
<mgrwt>
<rscale>  0 0.11931041E+03</rscale>
<asrwt>0</asrwt>
<pdfrwt beam="1">  1        1 0.96109341E-01 0.12139872E+03</pdfrwt>
<pdfrwt beam="2">  1       -1 0.35667605E-02 0.12139872E+03</pdfrwt>
<totfact> 0.92103795E+03</totfact>
</mgrwt>
</event>
<event>
 8    1  0.1893090E-003  0.1174294E+03  0.7546771E-02  0.1248127E+00
          1   -1    0    0  501    0  0.00000000000E+00  0.00000000000E+00  0.20106331469E+03  0.20106331469E+03  0.00000000000E+00 0. -1.
         -1   -1    0    0    0  501 -0.00000000000E+00 -0.00000000000E+00 -0.83119020682E+02  0.83119020682E+02  0.00000000000E+00 0.  1.
         23    2    1    2    0    0  0.40557937431E+02 -0.62702212483E+02  0.12073219613E+03  0.16842189107E+03  0.90626466727E+02 0.  0.
         23    2    1    2    0    0 -0.40557937431E+02  0.62702212483E+02 -0.27879021267E+01  0.11576044429E+03  0.88409243441E+02 0.  0.
          5    1    4    4  502    0 -0.55630059389E+02  0.37433473616E+02 -0.31634687372E+02  0.74288706407E+02  0.47000000000E+01 0. -1.
         -5    1    3    3    0  503  0.68125874609E+02 -0.42084296777E+02  0.99091719020E+02  0.12748914309E+03  0.47000000000E+01 0.  1.
          5    1    3    3  503    0 -0.27567937178E+02 -0.20617915706E+02  0.21640477112E+02  0.40932747989E+02  0.47000000000E+01 0. -1.
         -5    1    4    4    0  502  0.15072121958E+02  0.25268738867E+02  0.28846785246E+02  0.41471737886E+02  0.47000000000E+01 0.  1.
<mgrwt>
<rscale>  0 0.11700145E+03</rscale>
<asrwt>0</asrwt>
<pdfrwt beam="1">  1        1 0.30932817E-01 0.11742943E+03</pdfrwt>
<pdfrwt beam="2">  1       -1 0.12787542E-01 0.11742943E+03</pdfrwt>
<totfact> 0.57012357E+03</totfact>
</mgrwt>
</event>
<event>
 8    1  0.1893090E-003  0.9150461E+02  0.7546771E-02  0.1299706E+00
         -4   -1    0    0    0  501 -0.00000000000E+00  0.00000000000E+00  0.71428892440E+02  0.71428892440E+02  0.00000000000E+00 0.  1.
          4   -1    0    0  501    0  0.00000000000E+00 -0.00000000000E+00 -0.12112643804E+03  0.12112643804E+03  0.00000000000E+00 0. -1.
         23    2    1    2    0    0  0.52603608813E+01  0.76558619712E+01 -0.44288634932E+02  0.10165912420E+03  0.91031921486E+02 0.  0.
         23    2    1    2    0    0 -0.52603608813E+01 -0.76558619712E+01 -0.54089106691E+01  0.90896206283E+02  0.90258408931E+02 0.  0.
          5    1    3    3  502    0 -0.28875182219E+02  0.31036833389E+02 -0.42147244186E+02  0.59962833217E+02  0.47000000000E+01 0. -1.
         -5    1    3    3    0  502  0.34135543100E+02 -0.23380971418E+02 -0.21413907463E+01  0.41696290980E+02  0.47000000000E+01 0.  1.
          5    1    4    4  503    0  0.22245543491E+02  0.33624460894E+02  0.13518431159E+01  0.40612634185E+02  0.47000000000E+01 0. -1.
         -5    1    4    4    0  503 -0.27505904372E+02 -0.41280322865E+02 -0.67607537850E+01  0.50283572098E+02  0.47000000000E+01 0.  1.
<mgrwt>
<rscale>  0 0.91311633E+02</rscale>
<asrwt>0</asrwt>
<pdfrwt beam="1">  1        4 0.18634836E-01 0.91504614E+02</pdfrwt>
<pdfrwt beam="2">  1       -4 0.10989061E-01 0.91504614E+02</pdfrwt>
<totfact> 0.24632220E+03</totfact>
</mgrwt>
</event>
<event>
 8    1  0.1893090E-003  0.1001005E+03  0.7546771E-02  0.1286370E+00
         -1   -1    0    0    0  501 -0.00000000000E+00  0.00000000000E+00  0.90571313992E+02  0.90571313992E+02  0.00000000000E+00 0.  1.
          1   -1    0    0  501    0  0.00000000000E+00 -0.00000000000E+00 -0.23308077374E+03  0.23308077374E+03  0.00000000000E+00 0. -1.
         23    2    1    2    0    0 -0.25309340321E+02 -0.38938226899E+01  0.53379117556E+02  0.10366924150E+03  0.85101450518E+02 0.  0.
         23    2    1    2    0    0  0.25309340321E+02  0.38938226899E+01 -0.19588857731E+03  0.21998284623E+03  0.96769795670E+02 0.  0.
          5    1    4    4  502    0  0.96344933382E+01 -0.46186066761E+02 -0.92287140133E+02  0.10375443344E+03  0.47000000000E+01 0. -1.
         -5    1    3    3    0  503 -0.56429574252E+02 -0.76059653370E+01  0.32732577312E+02  0.65845722537E+02  0.47000000000E+01 0.  1.
          5    1    3    3  503    0  0.31120233931E+02  0.37121426472E+01  0.20646540245E+02  0.37823518967E+02  0.47000000000E+01 0. -1.
         -5    1    4    4    0  502  0.15674846983E+02  0.50079889450E+02 -0.10360143717E+03  0.11622841279E+03  0.47000000000E+01 0.  1.
<mgrwt>
<rscale>  0 0.97166560E+02</rscale>
<asrwt>0</asrwt>
<pdfrwt beam="1">  1        1 0.35858581E-01 0.10010054E+03</pdfrwt>
<pdfrwt beam="2">  1       -1 0.13934048E-01 0.10010054E+03</pdfrwt>
<totfact> 0.41198921E+03</totfact>
</mgrwt>
</event>
<event>
 8    1  0.1893090E-003  0.1230535E+03  0.7546771E-02  0.1238557E+00
         -2   -1    0    0    0  501 -0.00000000000E+00  0.00000000000E+00  0.30965415311E+02  0.30965415311E+02  0.00000000000E+00 0. -1.
          2   -1    0    0  501    0  0.00000000000E+00 -0.00000000000E+00 -0.61273607472E+03  0.61273607472E+03  0.00000000000E+00 0.  1.
         23    2    1    2    0    0 -0.27213873523E+02  0.77419204758E+02 -0.43692111829E+03  0.45363952297E+03  0.90301854985E+02 0.  0.
         23    2    1    2    0    0  0.27213873523E+02 -0.77419204758E+02 -0.14484954112E+03  0.19006196706E+03  0.91694239643E+02 0.  0.
          5    1    4    4  502    0  0.36249060664E+02 -0.32380288303E+02 -0.13252069676E+02  0.50598268946E+02  0.47000000000E+01 0. -1.
         -5    1    4    4    0  502 -0.90351871404E+01 -0.45038916455E+02 -0.13159747145E+03  0.13946369812E+03  0.47000000000E+01 0.  1.
          5    1    3    3  503    0 -0.49921891795E+02  0.11200779586E+02 -0.16511219320E+03  0.17292130895E+03  0.47000000000E+01 0. -1.
         -5    1    3    3    0  503  0.22708018272E+02  0.66218425173E+02 -0.27180892509E+03  0.28071821402E+03  0.47000000000E+01 0.  1.
<mgrwt>
<rscale>  0 0.12279417E+03</rscale>
<asrwt>0</asrwt>
<pdfrwt beam="1">  1        2 0.94267086E-01 0.12305349E+03</pdfrwt>
<pdfrwt beam="2">  1       -2 0.47639102E-02 0.12305349E+03</pdfrwt>
<totfact> 0.98502326E+03</totfact>
</mgrwt>
</event>
<event>
 8    1  0.1893090E-003  0.9919627E+02  0.7546771E-02  0.1282040E+00
         -2   -1    0    0    0  501 -0.00000000000E+00  0.00000000000E+00  0.48360110422E+02  0.48360110422E+02  0.00000000000E+00 0.  1.
          2   -1    0    0  501    0  0.00000000000E+00 -0.00000000000E+00 -0.32641970965E+03  0.32641970965E+03  0.00000000000E+00 0. -1.
         23    2    1    2    0    0  0.28468822902E+02 -0.25032989076E+02 -0.25415204573E+03  0.27282441837E+03  0.91666659635E+02 0.  0.
         23    2    1    2    0    0 -0.28468822902E+02  0.25032989076E+02 -0.23907553497E+02  0.10195540170E+03  0.91576243660E+02 0.  0.
          5    1    3    3  502    0 -0.22967630706E+02 -0.35094802013E+02 -0.74498823844E+02  0.85623139061E+02  0.47000000000E+01 0. -1.
         -5    1    4    4    0  503  0.20447735044E+02 -0.87862848353E+00  0.21611847646E+02  0.30133765366E+02  0.47000000000E+01 0.  1.
          5    1    4    4  503    0 -0.48916557946E+02  0.25911617560E+02 -0.45519401143E+02  0.71821636338E+02  0.47000000000E+01 0. -1.
         -5    1    3    3    0  502  0.51436453608E+02  0.10061812937E+02 -0.17965322189E+03  0.18720127931E+03  0.47000000000E+01 0.  1.
<mgrwt>
<rscale>  0 0.99175381E+02</rscale>
<asrwt>0</asrwt>
<pdfrwt beam="1">  1        2 0.50218417E-01 0.99196275E+02</pdfrwt>
<pdfrwt beam="2">  1       -2 0.74400170E-02 0.99196275E+02</pdfrwt>
<totfact> 0.97654910E+03</totfact>
</mgrwt>
</event>
<event>
 8    1  0.1893090E-003  0.9487039E+02  0.7546771E-02  0.1292044E+00
         -3   -1    0    0    0  501 -0.00000000000E+00  0.00000000000E+00  0.12350577809E+03  0.12350577809E+03  0.00000000000E+00 0.  1.
          3   -1    0    0  501    0  0.00000000000E+00 -0.00000000000E+00 -0.72436470846E+02  0.72436470846E+02  0.00000000000E+00 0. -1.
         23    2    1    2    0    0 -0.21932690433E+02  0.77357949671E+00  0.32384477352E+02  0.10024542634E+03  0.92297073591E+02 0.  0.
         23    2    1    2    0    0  0.21932690433E+02 -0.77357949671E+00  0.18684829893E+02  0.95696822599E+02  0.91253041881E+02 0.  0.
          5    1    3    3  502    0 -0.47527294765E+01  0.45599863061E+02  0.21205965521E+02  0.50731833422E+02  0.47000000000E+01 0. -1.
         -5    1    4    4    0  503  0.24342264527E+02 -0.25147542889E+02  0.46466946611E+02  0.58362761099E+02  0.47000000000E+01 0.  1.
          5    1    4    4  503    0 -0.24095740940E+01  0.24373963393E+02 -0.27782116718E+02  0.37334061501E+02  0.47000000000E+01 0. -1.
         -5    1    3    3    0  502 -0.17179960957E+02 -0.44826283565E+02  0.11178511831E+02  0.49513592916E+02  0.47000000000E+01 0.  1.
<mgrwt>
<rscale>  0 0.94615515E+02</rscale>
<asrwt>0</asrwt>
<pdfrwt beam="1">  1        3 0.11144072E-01 0.94870391E+02</pdfrwt>
<pdfrwt beam="2">  1       -3 0.19000889E-01 0.94870391E+02</pdfrwt>
<totfact> 0.32154738E+03</totfact>
</mgrwt>
</event>
<event>
 8    1  0.1893090E-003  0.1473599E+03  0.7546771E-02  0.1205304E+00
          2   -1    0    0  501    0  0.00000000000E+00  0.00000000000E+00  0.31433813370E+02  0.31433813370E+02  0.00000000000E+00 0. -1.
         -2   -1    0    0    0  501 -0.00000000000E+00 -0.00000000000E+00 -0.82664571664E+03  0.82664571664E+03  0.00000000000E+00 0.  1.
         23    2    1    2    0    0  0.10074152608E+03 -0.55353025081E+02 -0.57998504370E+03  0.59723943595E+03  0.84258414889E+02 0.  0.
         23    2    1    2    0    0 -0.10074152608E+03  0.55353025081E+02 -0.21522685957E+03  0.26084009406E+03  0.92207055728E+02 0.  0.
          5    1    3    3  502    0  0.51986830205E+01 -0.44472493217E+02 -0.15015046981E+03  0.15675484854E+03  0.47000000000E+01 0. -1.
         -5    1    4    4    0  503 -0.37294734837E+02  0.44287267603E+02 -0.17587234293E+03  0.18521725170E+03  0.47000000000E+01 0.  1.
          5    1    4    4  503    0 -0.63446791238E+02  0.11065757479E+02 -0.39354516643E+02  0.75622842364E+02  0.47000000000E+01 0. -1.
         -5    1    3    3    0  502  0.95542843055E+02 -0.10880531864E+02 -0.42983457389E+03  0.44048458741E+03  0.47000000000E+01 0.  1.
<mgrwt>
<rscale>  0 0.14613507E+03</rscale>
<asrwt>0</asrwt>
<pdfrwt beam="1">  1        2 0.48359719E-02 0.14735995E+03</pdfrwt>
<pdfrwt beam="2">  1       -2 0.12717625E+00 0.14735995E+03</pdfrwt>
<totfact> 0.77325529E+02</totfact>
</mgrwt>
</event>
<event>
 8    1  0.1893090E-003  0.9564240E+02  0.7546771E-02  0.1293010E+00
         -2   -1    0    0    0  501 -0.00000000000E+00  0.00000000000E+00  0.83757447526E+02  0.83757447526E+02  0.00000000000E+00 0.  1.
          2   -1    0    0  501    0  0.00000000000E+00 -0.00000000000E+00 -0.11336572760E+03  0.11336572760E+03  0.00000000000E+00 0. -1.
         23    2    1    2    0    0 -0.20519348897E+02  0.10212458890E+02  0.14821940756E+02  0.96784081023E+02  0.92855427499E+02 0.  0.
         23    2    1    2    0    0  0.20519348897E+02 -0.10212458890E+02 -0.44430220824E+02  0.10033909410E+03  0.86997421147E+02 0.  0.
          5    1    4    4  502    0 -0.40365802314E+01 -0.43549923888E+02 -0.38091347039E+02  0.58188749512E+02  0.47000000000E+01 0. -1.
         -5    1    3    3    0  503 -0.42644606661E+02  0.10886119287E+02  0.42274661733E+02  0.61207083700E+02  0.47000000000E+01 0.  1.
          5    1    3    3  503    0  0.22125257764E+02 -0.67366039668E+00 -0.27452720978E+02  0.35576997323E+02  0.47000000000E+01 0. -1.
         -5    1    4    4    0  502  0.24555929128E+02  0.33337464998E+02 -0.63388737853E+01  0.42150344586E+02  0.47000000000E+01 0.  1.
<mgrwt>
<rscale>  0 0.94190587E+02</rscale>
<asrwt>0</asrwt>
<pdfrwt beam="1">  1        2 0.17440881E-01 0.95642399E+02</pdfrwt>
<pdfrwt beam="2">  1       -2 0.12885761E-01 0.95642399E+02</pdfrwt>
<totfact> 0.12969217E+04</totfact>
</mgrwt>
</event>
<event>
 8    1  0.1893090E-003  0.9497349E+02  0.7546771E-02  0.1293151E+00
         -2   -1    0    0    0  501 -0.00000000000E+00  0.00000000000E+00  0.15859489104E+02  0.15859489104E+02  0.00000000000E+00 0.  1.
          2   -1    0    0  501    0  0.00000000000E+00 -0.00000000000E+00 -0.55758589227E+03  0.55758589227E+03  0.00000000000E+00 0. -1.
         23    2    1    2    0    0 -0.20472906182E+02 -0.13702915524E+02 -0.23041467400E+03  0.24796887570E+03  0.88265120752E+02 0.  0.
         23    2    1    2    0    0  0.20472906182E+02  0.13702915524E+02 -0.31131172916E+03  0.32547650567E+03  0.91722697554E+02 0.  0.
          5    1    3    3  502    0 -0.42004862742E+02 -0.36110948102E+02 -0.18153510523E+03  0.18985650766E+03  0.47000000000E+01 0. -1.
         -5    1    3    3    0  502  0.21531956560E+02  0.22408032578E+02 -0.48879568764E+02  0.58112368045E+02  0.47000000000E+01 0.  1.
          5    1    4    4  503    0 -0.91799466074E+01 -0.35524204154E+02 -0.10881866186E+03  0.11493403182E+03  0.47000000000E+01 0. -1.
         -5    1    4    4    0  503  0.29652852790E+02  0.49227119678E+02 -0.20249306730E+03  0.21054247385E+03  0.47000000000E+01 0.  1.
<mgrwt>
<rscale>  0 0.94128567E+02</rscale>
<asrwt>0</asrwt>
<pdfrwt beam="1">  1        2 0.85782450E-01 0.94973486E+02</pdfrwt>
<pdfrwt beam="2">  1       -2 0.24399213E-02 0.94973486E+02</pdfrwt>
<totfact> 0.28599549E+04</totfact>
</mgrwt>
</event>
<event>
 8    1  0.1893090E-003  0.1008586E+03  0.7546771E-02  0.1279367E+00
          1   -1    0    0  501    0  0.00000000000E+00  0.00000000000E+00  0.49450777433E+02  0.49450777433E+02  0.00000000000E+00 0. -1.
         -1   -1    0    0    0  501 -0.00000000000E+00 -0.00000000000E+00 -0.23301453827E+03  0.23301453827E+03  0.00000000000E+00 0.  1.
         23    2    1    2    0    0  0.43307310779E+02 -0.22050981452E+01 -0.39894790123E+02  0.10692832845E+03  0.89228288801E+02 0.  0.
         23    2    1    2    0    0 -0.43307310779E+02  0.22050981452E+01 -0.14366897071E+03  0.17553698725E+03  0.91060831984E+02 0.  0.
          5    1    3    3  502    0  0.66666181021E+02 -0.84739817921E+01 -0.98655415534E+01  0.68085291874E+02  0.47000000000E+01 0. -1.
         -5    1    3    3    0  502 -0.23358870242E+02  0.62688836470E+01 -0.30029248569E+02  0.38843036581E+02  0.47000000000E+01 0.  1.
          5    1    4    4  503    0 -0.33790042732E+02  0.42861305806E+02 -0.10500778830E+03  0.11843810251E+03  0.47000000000E+01 0. -1.
         -5    1    4    4    0  503 -0.95172680474E+01 -0.40656207661E+02 -0.38661182415E+02  0.57098884737E+02  0.47000000000E+01 0.  1.
<mgrwt>
<rscale>  0 0.10044321E+03</rscale>
<asrwt>0</asrwt>
<pdfrwt beam="1">  1        1 0.76078118E-02 0.10085862E+03</pdfrwt>
<pdfrwt beam="2">  1       -1 0.35848391E-01 0.10085862E+03</pdfrwt>
<totfact> 0.64709648E+03</totfact>
</mgrwt>
</event>
<event>
 8    1  0.1893090E-003  0.1501751E+03  0.7546771E-02  0.1202095E+00
          1   -1    0    0  501    0  0.00000000000E+00  0.00000000000E+00  0.31453550560E+03  0.31453550560E+03  0.00000000000E+00 0. -1.
         -1   -1    0    0    0  501 -0.00000000000E+00 -0.00000000000E+00 -0.87522445888E+02  0.87522445888E+02  0.00000000000E+00 0.  1.
         23    2    1    2    0    0  0.10962495206E+03  0.24758757199E+02  0.19086967440E+02  0.14557049721E+03  0.90530829890E+02 0.  0.
         23    2    1    2    0    0 -0.10962495206E+03 -0.24758757199E+02  0.20792609227E+03  0.25648745428E+03  0.99608876025E+02 0.  0.
          5    1    3    3  502    0  0.62104096806E+02  0.55931432018E+02  0.27091693413E+02  0.87984622405E+02  0.47000000000E+01 0. -1.
         -5    1    3    3    0  502  0.47520855252E+02 -0.31172674820E+02 -0.80047259733E+01  0.57585874806E+02  0.47000000000E+01 0.  1.
          5    1    4    4  503    0  0.40294024050E+01  0.21537702833E+02  0.61041282195E+02  0.65024894149E+02  0.47000000000E+01 0. -1.
         -5    1    4    4    0  503 -0.11365435446E+03 -0.46296460032E+02  0.14688481008E+03  0.19146256013E+03  0.47000000000E+01 0.  1.
<mgrwt>
<rscale>  0 0.14868780E+03</rscale>
<asrwt>0</asrwt>
<pdfrwt beam="1">  1        1 0.48390077E-01 0.15017508E+03</pdfrwt>
<pdfrwt beam="2">  1       -1 0.13464992E-01 0.15017508E+03</pdfrwt>
<totfact> 0.30665603E+03</totfact>
</mgrwt>
</event>
<event>
 8    1  0.1893090E-003  0.9977121E+02  0.7546771E-02  0.1285403E+00
         -4   -1    0    0    0  501 -0.00000000000E+00  0.00000000000E+00  0.27866781952E+02  0.27866781952E+02  0.00000000000E+00 0.  1.
          4   -1    0    0  501    0  0.00000000000E+00 -0.00000000000E+00 -0.33530539938E+03  0.33530539938E+03  0.00000000000E+00 0. -1.
         23    2    1    2    0    0 -0.10403741515E+02  0.11301155647E+02 -0.12014679533E+03  0.15096350666E+03  0.90104239404E+02 0.  0.
         23    2    1    2    0    0  0.10403741515E+02 -0.11301155647E+02 -0.18729182210E+03  0.21220867467E+03  0.98581646491E+02 0.  0.
          5    1    3    3  502    0  0.38986635300E+02 -0.74168505311E-01 -0.64794309326E+02  0.75765135479E+02  0.47000000000E+01 0. -1.
         -5    1    4    4    0  503  0.22280601267E+02  0.39819771438E+02 -0.70898381628E+02  0.84443530881E+02  0.47000000000E+01 0.  1.
          5    1    4    4  503    0 -0.11876859752E+02 -0.51120927084E+02 -0.11639344047E+03  0.12776514379E+03  0.47000000000E+01 0. -1.
         -5    1    3    3    0  502 -0.49390376816E+02  0.11375324152E+02 -0.55352486005E+02  0.75198371182E+02  0.47000000000E+01 0.  1.
<mgrwt>
<rscale>  0 0.97610262E+02</rscale>
<asrwt>0</asrwt>
<pdfrwt beam="1">  1        4 0.51585445E-01 0.99771213E+02</pdfrwt>
<pdfrwt beam="2">  1       -4 0.42871973E-02 0.99771213E+02</pdfrwt>
<totfact> 0.17038194E+03</totfact>
</mgrwt>
</event>
<event>
 8    1  0.1893090E-003  0.1654450E+03  0.7546771E-02  0.1183909E+00
          1   -1    0    0  501    0  0.00000000000E+00  0.00000000000E+00  0.20636417958E+03  0.20636417958E+03  0.00000000000E+00 0. -1.
         -1   -1    0    0    0  501 -0.00000000000E+00 -0.00000000000E+00 -0.15699701747E+03  0.15699701747E+03  0.00000000000E+00 0.  1.
         23    2    1    2    0    0  0.91817933460E+02 -0.10638772723E+03  0.10101240865E+03  0.19004271699E+03  0.78510166011E+02 0.  0.
         23    2    1    2    0    0 -0.91817933460E+02  0.10638772723E+03 -0.51645246546E+02  0.17331848007E+03  0.87310839138E+02 0.  0.
          5    1    4    4  502    0  0.38377276229E+01  0.49934082622E+02  0.10011386091E+01  0.50311360935E+02  0.47000000000E+01 0. -1.
         -5    1    3    3    0  503 -0.55152962223E+00 -0.51297690220E+02  0.19787830558E+02  0.55185192262E+02  0.47000000000E+01 0.  1.
          5    1    3    3  503    0  0.92369463083E+02 -0.55090037014E+02  0.81224578091E+02  0.13485752472E+03  0.47000000000E+01 0. -1.
         -5    1    4    4    0  502 -0.95655661083E+02  0.56453644611E+02 -0.52646385155E+02  0.12300711913E+03  0.47000000000E+01 0.  1.
<mgrwt>
<rscale>  0 0.16431586E+03</rscale>
<asrwt>0</asrwt>
<pdfrwt beam="1">  1        1 0.31748336E-01 0.16544505E+03</pdfrwt>
<pdfrwt beam="2">  1       -1 0.24153387E-01 0.16544505E+03</pdfrwt>
<totfact> 0.20428169E+03</totfact>
</mgrwt>
</event>
<event>
 8    1  0.1893090E-003  0.1600028E+03  0.7546771E-02  0.1188818E+00
         -1   -1    0    0    0  501 -0.00000000000E+00  0.00000000000E+00  0.47818316498E+03  0.47818316498E+03  0.00000000000E+00 0.  1.
          1   -1    0    0  501    0  0.00000000000E+00 -0.00000000000E+00 -0.55498979675E+02  0.55498979675E+02  0.00000000000E+00 0. -1.
         23    2    1    2    0    0 -0.29210103551E+02  0.12714610772E+03  0.26307148026E+03  0.30767971110E+03  0.91874033539E+02 0.  0.
         23    2    1    2    0    0  0.29210103551E+02 -0.12714610772E+03  0.15961270504E+03  0.22600243355E+03  0.92636502004E+02 0.  0.
          5    1    4    4  502    0 -0.33974106120E+01 -0.11269413150E+03  0.79063732836E+02  0.13778488133E+03  0.47000000000E+01 0. -1.
         -5    1    3    3    0  503  0.21186226014E+02  0.88648671182E+02  0.19019482655E+03  0.21095877588E+03  0.47000000000E+01 0.  1.
          5    1    3    3  503    0 -0.50396329566E+02  0.38497436535E+02  0.72876653716E+02  0.96720935222E+02  0.47000000000E+01 0. -1.
         -5    1    4    4    0  502  0.32607514163E+02 -0.14451976217E+02  0.80548972205E+02  0.88217552220E+02  0.47000000000E+01 0.  1.
<mgrwt>
<rscale>  0 0.15989259E+03</rscale>
<asrwt>0</asrwt>
<pdfrwt beam="1">  1        1 0.85383049E-02 0.16000276E+03</pdfrwt>
<pdfrwt beam="2">  1       -1 0.73566638E-01 0.16000276E+03</pdfrwt>
<totfact> 0.15159830E+03</totfact>
</mgrwt>
</event>
<event>
 8    1  0.1893090E-003  0.1114742E+03  0.7546771E-02  0.1258206E+00
         -2   -1    0    0    0  501 -0.00000000000E+00  0.00000000000E+00  0.15520327419E+03  0.15520327419E+03  0.00000000000E+00 0.  1.
          2   -1    0    0  501    0  0.00000000000E+00 -0.00000000000E+00 -0.11204235311E+03  0.11204235311E+03  0.00000000000E+00 0. -1.
         23    2    1    2    0    0 -0.99854621276E+01 -0.61829599011E+02  0.93612615394E+02  0.14556723040E+03  0.92216528000E+02 0.  0.
         23    2    1    2    0    0  0.99854621276E+01  0.61829599011E+02 -0.50451694314E+02  0.12167839690E+03  0.91310733459E+02 0.  0.
          5    1    3    3  502    0 -0.11637845344E+02  0.22814668401E+02  0.15639455510E+02  0.30374843327E+02  0.47000000000E+01 0. -1.
         -5    1    4    4    0  503 -0.39144457565E+01 -0.23139049893E+02 -0.60277963219E+01  0.24681224524E+02  0.47000000000E+01 0.  1.
          5    1    4    4  503    0  0.13899907884E+02  0.84968648903E+02 -0.44423897992E+02  0.96997172374E+02  0.47000000000E+01 0. -1.
         -5    1    3    3    0  502  0.16523832167E+01 -0.84644267412E+02  0.77973159884E+02  0.11519238707E+03  0.47000000000E+01 0.  1.
<mgrwt>
<rscale>  0 0.11128669E+03</rscale>
<asrwt>0</asrwt>
<pdfrwt beam="1">  1        2 0.17237285E-01 0.11147420E+03</pdfrwt>
<pdfrwt beam="2">  1       -2 0.23877427E-01 0.11147420E+03</pdfrwt>
<totfact> 0.47958424E+03</totfact>
</mgrwt>
</event>
<event>
 8    1  0.1893090E-003  0.1057535E+03  0.7546771E-02  0.1269282E+00
          1   -1    0    0  501    0  0.00000000000E+00  0.00000000000E+00  0.47029987551E+03  0.47029987551E+03  0.00000000000E+00 0. -1.
         -1   -1    0    0    0  501 -0.00000000000E+00 -0.00000000000E+00 -0.25041042492E+02  0.25041042492E+02  0.00000000000E+00 0.  1.
         23    2    1    2    0    0 -0.19431614794E+02 -0.49039602367E+02  0.28301058250E+03  0.30167034923E+03  0.90152867637E+02 0.  0.
         23    2    1    2    0    0  0.19431614794E+02  0.49039602367E+02  0.16224825052E+03  0.19367056877E+03  0.91658737491E+02 0.  0.
          5    1    3    3  502    0 -0.28477973106E+02  0.19669401836E+02  0.99643347712E+02  0.10558772213E+03  0.47000000000E+01 0. -1.
         -5    1    3    3    0  502  0.90463583113E+01 -0.68709004203E+02  0.18336723479E+03  0.19608262710E+03  0.47000000000E+01 0.  1.
          5    1    4    4  503    0 -0.16013243386E+02  0.24424026730E+02  0.14327370634E+03  0.14629559793E+03  0.47000000000E+01 0. -1.
         -5    1    4    4    0  503  0.35444858180E+02  0.24615575637E+02  0.18974544176E+02  0.47374970840E+02  0.47000000000E+01 0.  1.
<mgrwt>
<rscale>  0 0.10542633E+03</rscale>
<asrwt>0</asrwt>
<pdfrwt beam="1">  1        1 0.72353820E-01 0.10575346E+03</pdfrwt>
<pdfrwt beam="2">  1       -1 0.38524684E-02 0.10575346E+03</pdfrwt>
<totfact> 0.11851260E+04</totfact>
</mgrwt>
</event>
<event>
 8    1  0.1893090E-003  0.1043992E+03  0.7546771E-02  0.1272050E+00
         -2   -1    0    0    0  501 -0.00000000000E+00  0.00000000000E+00  0.49698323863E+02  0.49698323863E+02  0.00000000000E+00 0.  1.
          2   -1    0    0  501    0  0.00000000000E+00 -0.00000000000E+00 -0.64725490725E+03  0.64725490725E+03  0.00000000000E+00 0. -1.
         23    2    1    2    0    0  0.49176932482E+02 -0.69649491427E+01 -0.13685028627E+02  0.10382156285E+03  0.90137426734E+02 0.  0.
         23    2    1    2    0    0 -0.49176932482E+02  0.69649491427E+01 -0.58387155476E+03  0.59313166827E+03  0.91827567968E+02 0.  0.
          5    1    4    4  502    0 -0.68496508346E+02 -0.24243668645E+01 -0.53679141136E+03  0.54116980563E+03  0.47000000000E+01 0. -1.
         -5    1    3    3    0  503  0.68375916172E+02 -0.26622154182E+02 -0.18844859117E+01  0.73550297707E+02  0.47000000000E+01 0.  1.
          5    1    3    3  503    0 -0.19198983690E+02  0.19657205039E+02 -0.11800542715E+02  0.30271265138E+02  0.47000000000E+01 0. -1.
         -5    1    4    4    0  502  0.19319575864E+02  0.93893160072E+01 -0.47080143393E+02  0.51961862636E+02  0.47000000000E+01 0.  1.
<mgrwt>
<rscale>  0 0.10402629E+03</rscale>
<asrwt>0</asrwt>
<pdfrwt beam="1">  1        2 0.99577677E-01 0.10439915E+03</pdfrwt>
<pdfrwt beam="2">  1       -2 0.76458960E-02 0.10439915E+03</pdfrwt>
<totfact> 0.44842494E+03</totfact>
</mgrwt>
</event>
<event>
 8    1  0.1893090E-003  0.9684465E+02  0.7546771E-02  0.1289154E+00
          2   -1    0    0  501    0  0.00000000000E+00  0.00000000000E+00  0.10176694392E+04  0.10176694392E+04  0.00000000000E+00 0. -1.
         -2   -1    0    0    0  501 -0.00000000000E+00 -0.00000000000E+00 -0.93940963655E+01  0.93940963655E+01  0.00000000000E+00 0.  1.
         23    2    1    2    0    0 -0.15898220147E+02 -0.82706011456E+00  0.39174319793E+03  0.40353639280E+03  0.95527219961E+02 0.  0.
         23    2    1    2    0    0  0.15898220147E+02  0.82706011456E+00  0.61653214493E+03  0.62352714279E+03  0.91764778858E+02 0.  0.
          5    1    3    3  502    0  0.36788933591E+02  0.81790078426E+01  0.23028039295E+03  0.23339124059E+03  0.47000000000E+01 0. -1.
         -5    1    3    3    0  502 -0.52687153737E+02 -0.90060679571E+01  0.16146280498E+03  0.17014515221E+03  0.47000000000E+01 0.  1.
          5    1    4    4  503    0  0.45985763044E+02  0.19867482843E+02  0.46879061132E+03  0.47148291013E+03  0.47000000000E+01 0. -1.
         -5    1    4    4    0  503 -0.30087542897E+02 -0.19040422728E+02  0.14774153360E+03  0.15204423267E+03  0.47000000000E+01 0.  1.
<mgrwt>
<rscale>  0 0.95903730E+02</rscale>
<asrwt>0</asrwt>
<pdfrwt beam="1">  1        2 0.15656444E+00 0.96844655E+02</pdfrwt>
<pdfrwt beam="2">  1       -2 0.14452464E-02 0.96844655E+02</pdfrwt>
<totfact> 0.29355191E+04</totfact>
</mgrwt>
</event>
<event>
 8    1  0.1893090E-003  0.1336349E+03  0.7546771E-02  0.1227765E+00
          1   -1    0    0  501    0  0.00000000000E+00  0.00000000000E+00  0.80354605187E+03  0.80354605187E+03  0.00000000000E+00 0. -1.
         -1   -1    0    0    0  501 -0.00000000000E+00 -0.00000000000E+00 -0.20585311373E+02  0.20585311373E+02  0.00000000000E+00 0.  1.
         23    2    1    2    0    0  0.50290161082E+02 -0.53893619606E+02  0.33537394824E+03  0.36101795554E+03  0.11146594336E+03 0.  0.
         23    2    1    2    0    0 -0.50290161082E+02  0.53893619606E+02  0.44758679226E+03  0.46311340771E+03  0.93308462938E+02 0.  0.
          5    1    3    3  502    0  0.78178004459E+02 -0.51771263261E+02  0.30645446896E+03  0.32051286343E+03  0.47000000000E+01 0. -1.
         -5    1    3    3    0  502 -0.27887843377E+02 -0.21223563454E+01  0.28919479278E+02  0.40505092105E+02  0.47000000000E+01 0.  1.
          5    1    4    4  503    0 -0.70805758466E+02  0.62455631371E+02  0.32633796271E+03  0.33975390686E+03  0.47000000000E+01 0. -1.
         -5    1    4    4    0  503  0.20515597384E+02 -0.85620117646E+01  0.12124882955E+03  0.12335950085E+03  0.47000000000E+01 0.  1.
<mgrwt>
<rscale>  0 0.12979154E+03</rscale>
<asrwt>0</asrwt>
<pdfrwt beam="1">  1        1 0.12362245E+00 0.13363487E+03</pdfrwt>
<pdfrwt beam="2">  1       -1 0.31669716E-02 0.13363487E+03</pdfrwt>
<totfact> 0.76792107E+03</totfact>
</mgrwt>
</event>
<event>
 8    1  0.1893090E-003  0.9049042E+02  0.7546771E-02  0.1301881E+00
         -1   -1    0    0    0  501 -0.00000000000E+00  0.00000000000E+00  0.11396978331E+02  0.11396978331E+02  0.00000000000E+00 0.  1.
          1   -1    0    0  501    0  0.00000000000E+00 -0.00000000000E+00 -0.82112848601E+03  0.82112848601E+03  0.00000000000E+00 0. -1.
         23    2    1    2    0    0 -0.50045880184E+01 -0.32321692657E+01 -0.55471917173E+03  0.56205148863E+03  0.90294094851E+02 0.  0.
         23    2    1    2    0    0  0.50045880184E+01  0.32321692657E+01 -0.25501233595E+03  0.27047397572E+03  0.89941020855E+02 0.  0.
          5    1    3    3  502    0  0.36961740907E+02 -0.14376226699E+02 -0.37416027191E+03  0.37628559003E+03  0.47000000000E+01 0. -1.
         -5    1    3    3    0  502 -0.41966328925E+02  0.11144057433E+02 -0.18055889982E+03  0.18576589860E+03  0.47000000000E+01 0.  1.
          5    1    4    4  503    0  0.24886649597E+02 -0.19855239430E+02 -0.22553815159E+03  0.22782257062E+03  0.47000000000E+01 0. -1.
         -5    1    4    4    0  503 -0.19882061578E+02  0.23087408696E+02 -0.29474184363E+02  0.42651405097E+02  0.47000000000E+01 0.  1.
<mgrwt>
<rscale>  0 0.90402216E+02</rscale>
<asrwt>0</asrwt>
<pdfrwt beam="1">  1        1 0.12632744E+00 0.90490422E+02</pdfrwt>
<pdfrwt beam="2">  1       -1 0.17533815E-02 0.90490422E+02</pdfrwt>
<totfact> 0.16934118E+04</totfact>
</mgrwt>
</event>
<event>
 8    1  0.1893090E-003  0.1427701E+03  0.7546771E-02  0.1209702E+00
          2   -1    0    0  501    0  0.00000000000E+00  0.00000000000E+00  0.78723056974E+03  0.78723056974E+03  0.00000000000E+00 0. -1.
         -2   -1    0    0    0  501 -0.00000000000E+00 -0.00000000000E+00 -0.26761272929E+02  0.26761272929E+02  0.00000000000E+00 0.  1.
         23    2    1    2    0    0  0.10894226583E+03 -0.14358957331E+02  0.45457371903E+03  0.47641901152E+03  0.90902208787E+02 0.  0.
         23    2    1    2    0    0 -0.10894226583E+03  0.14358957331E+02  0.30589557778E+03  0.33757283115E+03  0.91152152400E+02 0.  0.
          5    1    3    3  502    0  0.33737554351E+02  0.33201269870E+02  0.22891304665E+03  0.23380295084E+03  0.47000000000E+01 0. -1.
         -5    1    3    3    0  502  0.75204711477E+02 -0.47560227201E+02  0.22566067238E+03  0.24261606068E+03  0.47000000000E+01 0.  1.
          5    1    4    4  503    0 -0.77454134616E+02  0.49529606742E+02  0.23378514428E+03  0.25125665882E+03  0.47000000000E+01 0. -1.
         -5    1    4    4    0  503 -0.31488131213E+02 -0.35170649411E+02  0.72110433502E+02  0.86316172338E+02  0.47000000000E+01 0.  1.
<mgrwt>
<rscale>  0 0.14273026E+03</rscale>
<asrwt>0</asrwt>
<pdfrwt beam="1">  1        2 0.12111238E+00 0.14277014E+03</pdfrwt>
<pdfrwt beam="2">  1       -2 0.41171195E-02 0.14277014E+03</pdfrwt>
<totfact> 0.91848912E+03</totfact>
</mgrwt>
</event>
<event>
 8    1  0.1893090E-003  0.1019307E+03  0.7546771E-02  0.1281339E+00
         -1   -1    0    0    0  501 -0.00000000000E+00  0.00000000000E+00  0.25989433732E+02  0.25989433732E+02  0.00000000000E+00 0.  1.
          1   -1    0    0  501    0  0.00000000000E+00 -0.00000000000E+00 -0.56333133140E+03  0.56333133140E+03  0.00000000000E+00 0. -1.
         23    2    1    2    0    0  0.12017330313E+02 -0.34778368174E-01 -0.43550752023E+03  0.44523709016E+03  0.91786975342E+02 0.  0.
         23    2    1    2    0    0 -0.12017330313E+02  0.34778368174E-01 -0.10183437744E+03  0.14408367497E+03  0.10121979810E+03 0.  0.
          5    1    3    3  502    0 -0.34276961031E+02  0.39249203382E+01 -0.88536430343E+02  0.95137293187E+02  0.47000000000E+01 0. -1.
         -5    1    3    3    0  502  0.46294291343E+02 -0.39596987064E+01 -0.34697108988E+03  0.35009979697E+03  0.47000000000E+01 0.  1.
          5    1    4    4  503    0 -0.23330011750E+02 -0.28438454704E+02 -0.10646936597E+03  0.11274241014E+03  0.47000000000E+01 0. -1.
         -5    1    4    4    0  503  0.11312681437E+02  0.28473233072E+02  0.46349885242E+01  0.31341264836E+02  0.47000000000E+01 0.  1.
<mgrwt>
<rscale>  0 0.99505404E+02</rscale>
<asrwt>0</asrwt>
<pdfrwt beam="1">  1        1 0.86666353E-01 0.10193069E+03</pdfrwt>
<pdfrwt beam="2">  1       -1 0.39983747E-02 0.10193069E+03</pdfrwt>
<totfact> 0.88538060E+03</totfact>
</mgrwt>
</event>
<event>
 8    1  0.1893090E-003  0.9730715E+02  0.7546771E-02  0.1286863E+00
          2   -1    0    0  501    0  0.00000000000E+00  0.00000000000E+00  0.26332324682E+03  0.26332324682E+03  0.00000000000E+00 0. -1.
         -2   -1    0    0    0  501 -0.00000000000E+00 -0.00000000000E+00 -0.36652194887E+02  0.36652194887E+02  0.00000000000E+00 0.  1.
         23    2    1    2    0    0 -0.20451983184E+02  0.24019280728E+02  0.86686345810E+02  0.13031962530E+03  0.92051467809E+02 0.  0.
         23    2    1    2    0    0  0.20451983184E+02 -0.24019280728E+02  0.13998470612E+03  0.16965581641E+03  0.90510599543E+02 0.  0.
          5    1    4    4  502    0  0.38922675110E+02  0.20577141063E+02  0.45715355229E+02  0.63642572825E+02  0.47000000000E+01 0. -1.
         -5    1    3    3    0  503  0.24224971152E+02 -0.21917159199E+02  0.31428343544E+02  0.45574574848E+02  0.47000000000E+01 0.  1.
          5    1    3    3  503    0 -0.44676954336E+02  0.45936439926E+02  0.55258002265E+02  0.84745050453E+02  0.47000000000E+01 0. -1.
         -5    1    4    4    0  502 -0.18470691926E+02 -0.44596421791E+02  0.94269350896E+02  0.10601324358E+03  0.47000000000E+01 0.  1.
<mgrwt>
<rscale>  0 0.96941007E+02</rscale>
<asrwt>0</asrwt>
<pdfrwt beam="1">  1        2 0.40511268E-01 0.97307154E+02</pdfrwt>
<pdfrwt beam="2">  1       -2 0.56387994E-02 0.97307154E+02</pdfrwt>
<totfact> 0.18559876E+04</totfact>
</mgrwt>
</event>
<event>
 8    1  0.1893090E-003  0.1029588E+03  0.7546771E-02  0.1275002E+00
          1   -1    0    0  501    0  0.00000000000E+00  0.00000000000E+00  0.18139887869E+03  0.18139887869E+03  0.00000000000E+00 0. -1.
         -1   -1    0    0    0  501 -0.00000000000E+00 -0.00000000000E+00 -0.66753234760E+02  0.66753234760E+02  0.00000000000E+00 0.  1.
         23    2    1    2    0    0 -0.38526412022E+02 -0.22840269936E+02  0.11615877503E+02  0.10361201258E+03  0.92706840025E+02 0.  0.
         23    2    1    2    0    0  0.38526412022E+02  0.22840269936E+02  0.10302976642E+03  0.14454010086E+03  0.90943639878E+02 0.  0.
          5    1    4    4  502    0  0.67181452469E+01  0.30396882713E+02  0.10675540295E+03  0.11130098837E+03  0.47000000000E+01 0. -1.
         -5    1    4    4    0  502  0.31808266775E+02 -0.75566127770E+01 -0.37256365203E+01  0.33239112494E+02  0.47000000000E+01 0.  1.
          5    1    3    3  503    0 -0.24229223001E+02  0.24776763535E+01  0.49653314838E+02  0.55504376420E+02  0.47000000000E+01 0. -1.
         -5    1    3    3    0  503 -0.14297189021E+02 -0.25317946290E+02 -0.38037437335E+02  0.48107636164E+02  0.47000000000E+01 0.  1.
<mgrwt>
<rscale>  0 0.10256034E+03</rscale>
<asrwt>0</asrwt>
<pdfrwt beam="1">  1        1 0.27907520E-01 0.10295883E+03</pdfrwt>
<pdfrwt beam="2">  1       -1 0.10269728E-01 0.10295883E+03</pdfrwt>
<totfact> 0.89669051E+03</totfact>
</mgrwt>
</event>
<event>
 8    1  0.1893090E-003  0.1211020E+03  0.7546771E-02  0.1241589E+00
         -1   -1    0    0    0  501 -0.00000000000E+00  0.00000000000E+00  0.54486947483E+02  0.54486947483E+02  0.00000000000E+00 0.  1.
          1   -1    0    0  501    0  0.00000000000E+00 -0.00000000000E+00 -0.27387064561E+03  0.27387064561E+03  0.00000000000E+00 0. -1.
         23    2    1    2    0    0  0.56170089105E+02  0.54270035550E+02 -0.85046358841E+02  0.14798171385E+03  0.92549385803E+02 0.  0.
         23    2    1    2    0    0 -0.56170089105E+02 -0.54270035550E+02 -0.13433733929E+03  0.18037587925E+03  0.91589417611E+02 0.  0.
          5    1    3    3  502    0 -0.21978541159E+02  0.16611047065E+02 -0.43446287511E+02  0.51659007487E+02  0.47000000000E+01 0. -1.
         -5    1    4    4    0  503  0.83730325716E+01  0.19597312730E+02 -0.19420468161E+02  0.29213129313E+02  0.47000000000E+01 0.  1.
          5    1    4    4  503    0 -0.64543121677E+02 -0.73867348280E+02 -0.11491687113E+03  0.15116274993E+03  0.47000000000E+01 0. -1.
         -5    1    3    3    0  502  0.78148630265E+02  0.37658988485E+02 -0.41600071330E+02  0.96322706361E+02  0.47000000000E+01 0.  1.
<mgrwt>
<rscale>  0 0.12091862E+03</rscale>
<asrwt>0</asrwt>
<pdfrwt beam="1">  1        1 0.42133946E-01 0.12110204E+03</pdfrwt>
<pdfrwt beam="2">  1       -1 0.83826073E-02 0.12110204E+03</pdfrwt>
<totfact> 0.74304559E+03</totfact>
</mgrwt>
</event>
<event>
 8    1  0.1893090E-003  0.1069350E+03  0.7546771E-02  0.1267264E+00
         -2   -1    0    0    0  501 -0.00000000000E+00  0.00000000000E+00  0.45868344075E+02  0.45868344075E+02  0.00000000000E+00 0.  1.
          2   -1    0    0  501    0  0.00000000000E+00 -0.00000000000E+00 -0.30907559165E+03  0.30907559165E+03  0.00000000000E+00 0. -1.
         23    2    1    2    0    0 -0.44554810546E+02 -0.32874455483E+02 -0.21151665325E+03  0.23617096823E+03  0.89283652841E+02 0.  0.
         23    2    1    2    0    0  0.44554810546E+02  0.32874455483E+02 -0.51690594319E+02  0.11877296749E+03  0.91483546609E+02 0.  0.
          5    1    3    3  502    0 -0.45875887749E+02  0.20555307637E+02 -0.87040308752E+02  0.10062416756E+03  0.47000000000E+01 0. -1.
         -5    1    3    3    0  502  0.13210772029E+01 -0.53429763120E+02 -0.12447634450E+03  0.13554680067E+03  0.47000000000E+01 0.  1.
          5    1    4    4  503    0 -0.97255333901E+00  0.54084453530E+02 -0.38714914076E+02  0.66685894653E+02  0.47000000000E+01 0. -1.
         -5    1    4    4    0  503  0.45527363885E+02 -0.21209998047E+02 -0.12975680243E+02  0.52087072842E+02  0.47000000000E+01 0.  1.
<mgrwt>
<rscale>  0 0.10646295E+03</rscale>
<asrwt>0</asrwt>
<pdfrwt beam="1">  1        2 0.47550090E-01 0.10693503E+03</pdfrwt>
<pdfrwt beam="2">  1       -2 0.70566685E-02 0.10693503E+03</pdfrwt>
<totfact> 0.11279843E+04</totfact>
</mgrwt>
</event>
<event>
 8    1  0.1893090E-003  0.1167820E+03  0.7546771E-02  0.1248509E+00
          1   -1    0    0  501    0  0.00000000000E+00  0.00000000000E+00  0.45385161996E+03  0.45385161996E+03  0.00000000000E+00 0. -1.
         -1   -1    0    0    0  501 -0.00000000000E+00 -0.00000000000E+00 -0.38996113751E+02  0.38996113751E+02  0.00000000000E+00 0.  1.
         23    2    1    2    0    0 -0.56500895977E+02  0.43963522687E+02  0.89378366613E+02  0.14705956756E+03  0.92265277423E+02 0.  0.
         23    2    1    2    0    0  0.56500895977E+02 -0.43963522687E+02  0.32547713960E+03  0.34578816616E+03  0.92243942242E+02 0.  0.
          5    1    4    4  502    0  0.74943090706E+02 -0.23252950720E+02  0.29026718972E+03  0.30072295887E+03  0.47000000000E+01 0. -1.
         -5    1    3    3    0  503 -0.33348544744E+02  0.21652683903E+02 -0.11025407249E+02  0.41528469292E+02  0.47000000000E+01 0.  1.
          5    1    3    3  503    0 -0.23152351232E+02  0.22310838784E+02  0.10040377386E+03  0.10553109826E+03  0.47000000000E+01 0. -1.
         -5    1    4    4    0  502 -0.18442194729E+02 -0.20710571968E+02  0.35209949875E+02  0.45065207287E+02  0.47000000000E+01 0.  1.
<mgrwt>
<rscale>  0 0.11677774E+03</rscale>
<asrwt>0</asrwt>
<pdfrwt beam="1">  1        1 0.69823322E-01 0.11678195E+03</pdfrwt>
<pdfrwt beam="2">  1       -1 0.59994024E-02 0.11678195E+03</pdfrwt>
<totfact> 0.65150678E+03</totfact>
</mgrwt>
</event>
<event>
 8    1  0.1893090E-003  0.1255838E+03  0.7546771E-02  0.1234261E+00
         -2   -1    0    0    0  501 -0.00000000000E+00  0.00000000000E+00  0.90873113613E+02  0.90873113613E+02  0.00000000000E+00 0.  1.
          2   -1    0    0  501    0  0.00000000000E+00 -0.00000000000E+00 -0.25609741174E+03  0.25609741174E+03  0.00000000000E+00 0. -1.
         23    2    1    2    0    0  0.78344791776E+02  0.35346312566E+02 -0.18126106384E+03  0.22036690452E+03  0.91207078317E+02 0.  0.
         23    2    1    2    0    0 -0.78344791776E+02 -0.35346312566E+02  0.16036765713E+02  0.12660362083E+03  0.91564353008E+02 0.  0.
          5    1    3    3  502    0  0.41363971372E+02  0.22973316646E+02 -0.17405572887E+03  0.18043347294E+03  0.47000000000E+01 0. -1.
         -5    1    3    3    0  502  0.36980820404E+02  0.12372995920E+02 -0.72053349664E+01  0.39933431580E+02  0.47000000000E+01 0.  1.
          5    1    4    4  503    0 -0.43094469684E+02 -0.65778143203E+02  0.10121677772E+02  0.79425662109E+02  0.47000000000E+01 0. -1.
         -5    1    4    4    0  503 -0.35250322092E+02  0.30431830637E+02  0.59150879411E+01  0.47177958718E+02  0.47000000000E+01 0.  1.
<mgrwt>
<rscale>  0 0.12551872E+03</rscale>
<asrwt>0</asrwt>
<pdfrwt beam="1">  1        2 0.39399602E-01 0.12558383E+03</pdfrwt>
<pdfrwt beam="2">  1       -2 0.13980479E-01 0.12558383E+03</pdfrwt>
<totfact> 0.47689808E+03</totfact>
</mgrwt>
</event>
<event>
 8    1  0.1893090E-003  0.1958860E+03  0.7546771E-02  0.1153441E+00
          1   -1    0    0  501    0  0.00000000000E+00  0.00000000000E+00  0.11793672227E+03  0.11793672227E+03  0.00000000000E+00 0. -1.
         -1   -1    0    0    0  501 -0.00000000000E+00 -0.00000000000E+00 -0.54425999649E+03  0.54425999649E+03  0.00000000000E+00 0.  1.
         23    2    1    2    0    0  0.52919937586E+02 -0.16482788906E+03 -0.42409201372E+03  0.46714598625E+03  0.91665607284E+02 0.  0.
         23    2    1    2    0    0 -0.52919937586E+02  0.16482788906E+03 -0.22312604945E+01  0.19505073251E+03  0.89839061240E+02 0.  0.
          5    1    4    4  502    0 -0.68205681943E+02  0.93585329002E+02  0.22301596495E+02  0.11802406560E+03  0.47000000000E+01 0. -1.
         -5    1    3    3    0  503  0.19407860239E+02 -0.15820171057E+03 -0.32069446155E+03  0.35815007181E+03  0.47000000000E+01 0.  1.
          5    1    3    3  503    0  0.33512077347E+02 -0.66261784862E+01 -0.10339755217E+03  0.10899591444E+03  0.47000000000E+01 0. -1.
         -5    1    4    4    0  502  0.15285744358E+02  0.71242560055E+02 -0.24532856990E+02  0.77026666914E+02  0.47000000000E+01 0.  1.
<mgrwt>
<rscale>  0 0.19567367E+03</rscale>
<asrwt>0</asrwt>
<pdfrwt beam="1">  1        1 0.18144111E-01 0.19588603E+03</pdfrwt>
<pdfrwt beam="2">  1       -1 0.83732306E-01 0.19588603E+03</pdfrwt>
<totfact> 0.43170224E+02</totfact>
</mgrwt>
</event>
<event>
 8    1  0.1893090E-003  0.1083202E+03  0.7546771E-02  0.1263787E+00
         -1   -1    0    0    0  501 -0.00000000000E+00  0.00000000000E+00  0.30553087333E+02  0.30553087333E+02  0.00000000000E+00 0.  1.
          1   -1    0    0  501    0  0.00000000000E+00 -0.00000000000E+00 -0.53056547612E+03  0.53056547612E+03  0.00000000000E+00 0. -1.
         23    2    1    2    0    0 -0.53719788231E+02 -0.25218440758E+02 -0.10241315503E+03  0.14906953960E+03  0.90617260562E+02 0.  0.
         23    2    1    2    0    0  0.53719788231E+02  0.25218440758E+02 -0.39759923376E+03  0.41204902386E+03  0.90429320312E+02 0.  0.
          5    1    3    3  502    0 -0.10907248245E+02  0.33261489505E+02 -0.27824874728E+02  0.44962299785E+02  0.47000000000E+01 0. -1.
         -5    1    3    3    0  502 -0.42812539985E+02 -0.58479930263E+02 -0.74588280302E+02  0.10410723982E+03  0.47000000000E+01 0.  1.
          5    1    4    4  503    0  0.76750627000E+02  0.51994330018E+01 -0.29535447986E+03  0.30524424912E+03  0.47000000000E+01 0. -1.
         -5    1    4    4    0  503 -0.23030838769E+02  0.20019007756E+02 -0.10224475390E+03  0.10680477473E+03  0.47000000000E+01 0.  1.
<mgrwt>
<rscale>  0 0.10828092E+03</rscale>
<asrwt>0</asrwt>
<pdfrwt beam="1">  1        1 0.81625456E-01 0.10832024E+03</pdfrwt>
<pdfrwt beam="2">  1       -1 0.47004751E-02 0.10832024E+03</pdfrwt>
<totfact> 0.75953713E+03</totfact>
</mgrwt>
</event>
<event>
 8    1  0.1904173E-003  0.9698066E+02  0.7546771E-02  0.1286978E+00
          2   -1    0    0  501    0  0.00000000000E+00  0.00000000000E+00  0.20153050450E+03  0.20153050450E+03  0.00000000000E+00 0. -1.
         -2   -1    0    0    0  501 -0.00000000000E+00 -0.00000000000E+00 -0.13463025595E+03  0.13463025595E+03  0.00000000000E+00 0.  1.
         23    2    1    2    0    0 -0.11726701410E+02  0.31560247951E+02  0.16946830373E+03  0.19525561440E+03  0.90948799941E+02 0.  0.
         23    2    1    2    0    0  0.11726701410E+02 -0.31560247951E+02 -0.10256805518E+03  0.14090514604E+03  0.90556553947E+02 0.  0.
          5    1    3    3  502    0  0.10484013072E+01  0.61318347808E+02  0.13121316241E+03  0.14491384652E+03  0.47000000000E+01 0. -1.
         -5    1    3    3    0  502 -0.12775102717E+02 -0.29758099857E+02  0.38255141321E+02  0.50341767887E+02  0.47000000000E+01 0.  1.
          5    1    4    4  503    0  0.13577592795E+02  0.30212443384E+02 -0.46811953217E+02  0.57537741747E+02  0.47000000000E+01 0. -1.
         -5    1    4    4    0  503 -0.18508913848E+01 -0.61772691336E+02 -0.55756101958E+02  0.83367404298E+02  0.47000000000E+01 0.  1.
<mgrwt>
<rscale>  0 0.96888594E+02</rscale>
<asrwt>0</asrwt>
<pdfrwt beam="1">  1        2 0.31004693E-01 0.96980663E+02</pdfrwt>
<pdfrwt beam="2">  1       -2 0.20712347E-01 0.96980663E+02</pdfrwt>
<totfact> 0.31683196E+03</totfact>
</mgrwt>
</event>
<event>
 8    1  0.1893090E-003  0.1244941E+03  0.7546771E-02  0.1236022E+00
         -2   -1    0    0    0  501 -0.00000000000E+00  0.00000000000E+00  0.27540854233E+03  0.27540854233E+03  0.00000000000E+00 0.  1.
          2   -1    0    0  501    0  0.00000000000E+00 -0.00000000000E+00 -0.56689804596E+02  0.56689804596E+02  0.00000000000E+00 0. -1.
         23    2    1    2    0    0  0.11723558948E+02  0.83804078713E+02  0.92135571305E+02  0.15455374066E+03  0.90759736724E+02 0.  0.
         23    2    1    2    0    0 -0.11723558948E+02 -0.83804078713E+02  0.12658316643E+03  0.17754460627E+03  0.91313874887E+02 0.  0.
          5    1    4    4  502    0  0.34584692595E+02 -0.16590150570E+02  0.20917917720E+02  0.43942955518E+02  0.47000000000E+01 0. -1.
         -5    1    4    4    0  502 -0.46308251544E+02 -0.67213928142E+02  0.10566524871E+03  0.13360165075E+03  0.47000000000E+01 0.  1.
          5    1    3    3  503    0 -0.31651661953E+02  0.28612941572E+02  0.60076036926E+01  0.43344081856E+02  0.47000000000E+01 0. -1.
         -5    1    3    3    0  503  0.43375220901E+02  0.55191137141E+02  0.86127967612E+02  0.11120965881E+03  0.47000000000E+01 0.  1.
<mgrwt>
<rscale>  0 0.12439254E+03</rscale>
<asrwt>0</asrwt>
<pdfrwt beam="1">  1        2 0.87215085E-02 0.12449413E+03</pdfrwt>
<pdfrwt beam="2">  1       -2 0.42370544E-01 0.12449413E+03</pdfrwt>
<totfact> 0.38525724E+03</totfact>
</mgrwt>
</event>
<event>
 8    1  0.1893090E-003  0.9696915E+02  0.7546771E-02  0.1287141E+00
          3   -1    0    0  501    0  0.00000000000E+00  0.00000000000E+00  0.30398179727E+02  0.30398179727E+02  0.00000000000E+00 0. -1.
         -3   -1    0    0    0  501 -0.00000000000E+00 -0.00000000000E+00 -0.34900681844E+03  0.34900681844E+03  0.00000000000E+00 0.  1.
         23    2    1    2    0    0  0.30612739767E+02 -0.32738743506E+01 -0.93325710222E+02  0.13413899309E+03  0.91300181756E+02 0.  0.
         23    2    1    2    0    0 -0.30612739767E+02  0.32738743506E+01 -0.22528292849E+03  0.24526600508E+03  0.91951929233E+02 0.  0.
          5    1    4    4  502    0  0.44572486417E+01 -0.39670973438E+02 -0.76486694557E+02  0.86405773206E+02  0.47000000000E+01 0. -1.
         -5    1    4    4    0  502 -0.35069988409E+02  0.42944847789E+02 -0.14879623394E+03  0.15886023188E+03  0.47000000000E+01 0.  1.
          5    1    3    3  503    0  0.52264721995E+02  0.15649080335E+01 -0.18040458903E+02  0.55512145156E+02  0.47000000000E+01 0. -1.
         -5    1    3    3    0  503 -0.21651982228E+02 -0.48387823841E+01 -0.75285251319E+02  0.78626847931E+02  0.47000000000E+01 0.  1.
<mgrwt>
<rscale>  0 0.96814325E+02</rscale>
<asrwt>0</asrwt>
<pdfrwt beam="1">  1        3 0.46766428E-02 0.96969147E+02</pdfrwt>
<pdfrwt beam="2">  1       -3 0.53693359E-01 0.96969147E+02</pdfrwt>
<totfact> 0.18902402E+03</totfact>
</mgrwt>
</event>
<event>
 8    1  0.1893090E-003  0.1098308E+03  0.7546771E-02  0.1269275E+00
          4   -1    0    0  501    0  0.00000000000E+00  0.00000000000E+00  0.89926514124E+02  0.89926514124E+02  0.00000000000E+00 0. -1.
         -4   -1    0    0    0  501 -0.00000000000E+00 -0.00000000000E+00 -0.24430497018E+03  0.24430497018E+03  0.00000000000E+00 0.  1.
         23    2    1    2    0    0  0.28398648701E+02  0.73499141726E+01  0.41401679451E+02  0.11737505082E+03  0.10584091367E+03 0.  0.
         23    2    1    2    0    0 -0.28398648701E+02 -0.73499141726E+01 -0.19578013550E+03  0.21685643348E+03  0.88523142725E+02 0.  0.
          5    1    4    4  502    0  0.22372035577E+02  0.22839494647E+02 -0.50466463159E+02  0.59925824111E+02  0.47000000000E+01 0. -1.
         -5    1    3    3    0  503 -0.18310484922E+02 -0.27070500916E+02 -0.15050186892E+02  0.36286140652E+02  0.47000000000E+01 0.  1.
          5    1    3    3  503    0  0.46709133623E+02  0.34420415088E+02  0.56451866343E+02  0.81088910168E+02  0.47000000000E+01 0. -1.
         -5    1    4    4    0  502 -0.50770684279E+02 -0.30189408820E+02 -0.14531367235E+03  0.15693060937E+03  0.47000000000E+01 0.  1.
<mgrwt>
<rscale>  0 0.10542979E+03</rscale>
<asrwt>0</asrwt>
<pdfrwt beam="1">  1        4 0.13834849E-01 0.10983079E+03</pdfrwt>
<pdfrwt beam="2">  1       -4 0.37585379E-01 0.10983079E+03</pdfrwt>
<totfact> 0.47471468E+02</totfact>
</mgrwt>
</event>
<event>
 7    1  0.1893090E-003  0.1710486E+03  0.7546771E-02  0.1186813E+00
         -1   -1    0    0    0  501 -0.00000000000E+00  0.00000000000E+00  0.23979418505E+03  0.23979418505E+03  0.00000000000E+00 0.  1.
          1   -1    0    0  501    0  0.00000000000E+00 -0.00000000000E+00 -0.10620955029E+03  0.10620955029E+03  0.00000000000E+00 0. -1.
         23    2    1    2    0    0 -0.95113686294E+02  0.36568790217E+02  0.13914690641E+02  0.13724906624E+03  0.90883429894E+02 0.  0.
          5    1    1    2  502    0  0.10498477298E+03  0.19401333620E+02  0.47963277078E+02  0.11713573431E+03  0.47000000000E+01 0. -1.
         -5    1    3    3    0  503 -0.87872912819E+02  0.55846724146E+01  0.39043024232E+02  0.96432801030E+02  0.47000000000E+01 0.  1.
          5    1    3    3  503    0 -0.72407734754E+01  0.30984117802E+02 -0.25128333591E+02  0.40816265209E+02  0.47000000000E+01 0. -1.
         -5    1    1    2    0  502 -0.98710866824E+01 -0.55970123837E+02  0.71706667043E+02  0.91618934795E+02  0.47000000000E+01 0.  1.
<mgrwt>
<rscale>  0 0.16167992E+03</rscale>
<asrwt>0</asrwt>
<pdfrwt beam="1">  1        1 0.16339931E-01 0.17104858E+03</pdfrwt>
<pdfrwt beam="2">  1       -1 0.36891413E-01 0.17104858E+03</pdfrwt>
<totfact> 0.23252832E+03</totfact>
</mgrwt>
</event>
<event>
 8    1  0.1893090E-003  0.9849464E+02  0.7546771E-02  0.1283539E+00
         -1   -1    0    0    0  501 -0.00000000000E+00  0.00000000000E+00  0.10358262483E+03  0.10358262483E+03  0.00000000000E+00 0.  1.
          1   -1    0    0  501    0  0.00000000000E+00 -0.00000000000E+00 -0.93862763371E+02  0.93862763371E+02  0.00000000000E+00 0. -1.
         23    2    1    2    0    0  0.35053273234E+02  0.51694732190E+01  0.10308462515E+02  0.99032616393E+02  0.91900703438E+02 0.  0.
         23    2    1    2    0    0 -0.35053273234E+02 -0.51694732190E+01 -0.58860105590E+00  0.98412771808E+02  0.91811065705E+02 0.  0.
          5    1    3    3  502    0 -0.88767072461E+01 -0.34736650423E+02 -0.74217142858E+01  0.36913448188E+02  0.47000000000E+01 0.  1.
         -5    1    4    4    0  503 -0.54265764417E+02 -0.22532261767E+02 -0.23559667330E+02  0.63479318938E+02  0.47000000000E+01 0.  1.
          5    1    4    4  503    0  0.19212491184E+02  0.17362788548E+02  0.22971066274E+02  0.34933452870E+02  0.47000000000E+01 0. -1.
         -5    1    3    3    0  502  0.43929980480E+02  0.39906123642E+02  0.17730176801E+02  0.62119168205E+02  0.47000000000E+01 0. -1.
<mgrwt>
<rscale>  0 0.98473729E+02</rscale>
<asrwt>0</asrwt>
<pdfrwt beam="1">  1        1 0.14440425E-01 0.98494643E+02</pdfrwt>
<pdfrwt beam="2">  1       -1 0.15935789E-01 0.98494643E+02</pdfrwt>
<totfact> 0.10424265E+04</totfact>
</mgrwt>
</event>
<event>
 8    1  0.1893090E-003  0.1037364E+03  0.7546771E-02  0.1275735E+00
          2   -1    0    0  501    0  0.00000000000E+00  0.00000000000E+00  0.17717645539E+03  0.17717645539E+03  0.00000000000E+00 0. -1.
         -2   -1    0    0    0  501 -0.00000000000E+00 -0.00000000000E+00 -0.13050416481E+03  0.13050416481E+03  0.00000000000E+00 0.  1.
         23    2    1    2    0    0  0.44695893907E+02 -0.19348917891E+02 -0.92188600362E+02  0.13434978683E+03  0.84729119128E+02 0.  0.
         23    2    1    2    0    0 -0.44695893907E+02  0.19348917891E+02  0.13886089095E+03  0.17333083337E+03  0.91592178737E+02 0.  0.
          5    1    4    4  502    0 -0.57178419665E+02 -0.16755602788E+02  0.11012161003E+03  0.12529557413E+03  0.47000000000E+01 0. -1.
         -5    1    3    3    0  503  0.54744347074E+02  0.13868062235E+02 -0.78346584404E+02  0.96693039948E+02  0.47000000000E+01 0.  1.
          5    1    3    3  503    0 -0.10048453167E+02 -0.33216980126E+02 -0.13842015959E+02  0.37656746879E+02  0.47000000000E+01 0. -1.
         -5    1    4    4    0  502  0.12482525757E+02  0.36104520680E+02  0.28739280918E+02  0.48035259242E+02  0.47000000000E+01 0.  1.
<mgrwt>
<rscale>  0 0.10220098E+03</rscale>
<asrwt>0</asrwt>
<pdfrwt beam="1">  1        2 0.27257916E-01 0.10373635E+03</pdfrwt>
<pdfrwt beam="2">  1       -2 0.20077564E-01 0.10373635E+03</pdfrwt>
<totfact> 0.38506594E+03</totfact>
</mgrwt>
</event>
<event>
 8    1  0.1893090E-003  0.1235497E+03  0.7546771E-02  0.1237931E+00
          2   -1    0    0  501    0  0.00000000000E+00  0.00000000000E+00  0.40916227433E+03  0.40916227433E+03  0.00000000000E+00 0. -1.
         -2   -1    0    0    0  501 -0.00000000000E+00 -0.00000000000E+00 -0.39390152772E+02  0.39390152772E+02  0.00000000000E+00 0.  1.
         23    2    1    2    0    0 -0.77758541057E+02  0.27859203980E+02  0.12715721968E+03  0.17629055840E+03  0.89927062168E+02 0.  0.
         23    2    1    2    0    0  0.77758541057E+02 -0.27859203980E+02  0.24261490188E+03  0.27226186871E+03  0.91880403693E+02 0.  0.
          5    1    3    3  502    0  0.19825631703E+02  0.10164155529E+02  0.25670217176E+02  0.34313492680E+02  0.47000000000E+01 0. -1.
         -5    1    3    3    0  502 -0.97584172760E+02  0.17695048452E+02  0.10148700250E+03  0.14197706572E+03  0.47000000000E+01 0.  1.
          5    1    4    4  503    0  0.24316518222E+02  0.30192117827E+02  0.12161981800E+03  0.12773537947E+03  0.47000000000E+01 0. -1.
         -5    1    4    4    0  503  0.53442022835E+02 -0.58051321807E+02  0.12099508388E+03  0.14452648924E+03  0.47000000000E+01 0.  1.
<mgrwt>
<rscale>  0 0.12318671E+03</rscale>
<asrwt>0</asrwt>
<pdfrwt beam="1">  1        2 0.62948039E-01 0.12354972E+03</pdfrwt>
<pdfrwt beam="2">  1       -2 0.60600238E-02 0.12354972E+03</pdfrwt>
<totfact> 0.10686774E+04</totfact>
</mgrwt>
</event>
<event>
 8    1  0.1893090E-003  0.1034390E+03  0.7546771E-02  0.1273527E+00
          1   -1    0    0  501    0  0.00000000000E+00  0.00000000000E+00  0.27785260454E+03  0.27785260454E+03  0.00000000000E+00 0. -1.
         -1   -1    0    0    0  501 -0.00000000000E+00 -0.00000000000E+00 -0.49649979239E+02  0.49649979239E+02  0.00000000000E+00 0.  1.
         23    2    1    2    0    0 -0.19567854211E+02  0.44142365352E+02  0.35506706969E+02  0.10879881151E+03  0.90802014338E+02 0.  0.
         23    2    1    2    0    0  0.19567854211E+02 -0.44142365352E+02  0.19269591834E+03  0.21870377228E+03  0.91477722579E+02 0.  0.
          5    1    4    4  502    0 -0.20227748628E+02  0.19076012840E+02  0.44572893780E+02  0.52743615162E+02  0.47000000000E+01 0. -1.
         -5    1    4    4    0  502  0.39795602840E+02 -0.63218378192E+02  0.14812302456E+03  0.16596015712E+03  0.47000000000E+01 0.  1.
          5    1    3    3  503    0 -0.28721469283E+02  0.68683830739E+02  0.34450857671E+02  0.82166556439E+02  0.47000000000E+01 0. -1.
         -5    1    3    3    0  503  0.91536150712E+01 -0.24541465387E+02  0.10558492985E+01  0.26632255067E+02  0.47000000000E+01 0.  1.
<mgrwt>
<rscale>  0 0.10328939E+03</rscale>
<asrwt>0</asrwt>
<pdfrwt beam="1">  1        1 0.42746554E-01 0.10343898E+03</pdfrwt>
<pdfrwt beam="2">  1       -1 0.76384585E-02 0.10343898E+03</pdfrwt>
<totfact> 0.82944834E+03</totfact>
</mgrwt>
</event>
<event>
 8    1  0.1893090E-003  0.9359102E+02  0.7546771E-02  0.1295302E+00
         -1   -1    0    0    0  501 -0.00000000000E+00  0.00000000000E+00  0.57756833222E+02  0.57756833222E+02  0.00000000000E+00 0.  1.
          1   -1    0    0  501    0  0.00000000000E+00 -0.00000000000E+00 -0.14992272907E+03  0.14992272907E+03  0.00000000000E+00 0. -1.
         23    2    1    2    0    0  0.11895520287E+02 -0.52161637760E+01 -0.38763274371E+02  0.10130089161E+03  0.92685314008E+02 0.  0.
         23    2    1    2    0    0 -0.11895520287E+02  0.52161637760E+01 -0.53402621476E+02  0.10637867068E+03  0.91081665711E+02 0.  0.
          5    1    4    4  502    0 -0.34643452087E+02 -0.33220733587E+01 -0.68790958807E+02  0.77236590794E+02  0.47000000000E+01 0. -1.
         -5    1    4    4    0  502  0.22747931800E+02  0.85382371347E+01  0.15388337331E+02  0.29142079891E+02  0.47000000000E+01 0.  1.
          5    1    3    3  503    0 -0.39437746621E+02 -0.11258165629E+02 -0.21888960222E+02  0.46725782299E+02  0.47000000000E+01 0. -1.
         -5    1    3    3    0  503  0.51333266908E+02  0.60420018534E+01 -0.16874314149E+02  0.54575109307E+02  0.47000000000E+01 0.  1.
<mgrwt>
<rscale>  0 0.93191505E+02</rscale>
<asrwt>0</asrwt>
<pdfrwt beam="1">  1        1 0.23065035E-01 0.93591021E+02</pdfrwt>
<pdfrwt beam="2">  1       -1 0.88856667E-02 0.93591021E+02</pdfrwt>
<totfact> 0.14012351E+04</totfact>
</mgrwt>
</event>
<event>
 8    1  0.1893090E-003  0.9405457E+02  0.7546771E-02  0.1293412E+00
         -2   -1    0    0    0  501 -0.00000000000E+00  0.00000000000E+00  0.21823663684E+03  0.21823663684E+03  0.00000000000E+00 0.  1.
          2   -1    0    0  501    0  0.00000000000E+00 -0.00000000000E+00 -0.98399230425E+02  0.98399230425E+02  0.00000000000E+00 0. -1.
         23    2    1    2    0    0  0.16567261385E+02 -0.31636290289E+01  0.18137580884E+03  0.20423819306E+03  0.92366513279E+02 0.  0.
         23    2    1    2    0    0 -0.16567261385E+02  0.31636290289E+01 -0.61538402422E+02  0.11239767420E+03  0.92529884337E+02 0.  0.
          5    1    4    4  502    0 -0.38865047742E+02 -0.32586039639E+02 -0.40473489642E+02  0.65057937864E+02  0.47000000000E+01 0. -1.
         -5    1    4    4    0  502  0.22297786357E+02  0.35749668668E+02 -0.21064912780E+02  0.47339736340E+02  0.47000000000E+01 0.  1.
          5    1    3    3  503    0  0.20754126190E+02  0.39246450956E+02  0.12926094537E+03  0.13675342652E+03  0.47000000000E+01 0. -1.
         -5    1    3    3    0  503 -0.41868648051E+01 -0.42410079984E+02  0.52114863467E+02  0.67484766543E+02  0.47000000000E+01 0.  1.
<mgrwt>
<rscale>  0 0.94014365E+02</rscale>
<asrwt>0</asrwt>
<pdfrwt beam="1">  1        2 0.15138343E-01 0.94054570E+02</pdfrwt>
<pdfrwt beam="2">  1       -2 0.33574867E-01 0.94054570E+02</pdfrwt>
<totfact> 0.30106761E+03</totfact>
</mgrwt>
</event>
<event>
 8    1  0.1893090E-003  0.1711879E+03  0.7546771E-02  0.1176903E+00
          1   -1    0    0  501    0  0.00000000000E+00  0.00000000000E+00  0.98649946235E+03  0.98649946235E+03  0.00000000000E+00 0. -1.
         -1   -1    0    0    0  501 -0.00000000000E+00 -0.00000000000E+00 -0.33205639336E+02  0.33205639336E+02  0.00000000000E+00 0.  1.
         23    2    1    2    0    0  0.13890911991E+03 -0.39194915798E+02  0.30801727586E+03  0.35239174424E+03  0.92050606534E+02 0.  0.
         23    2    1    2    0    0 -0.13890911991E+03  0.39194915798E+02  0.64527654716E+03  0.66731335745E+03  0.89962823976E+02 0.  0.
          5    1    4    4  502    0 -0.10033516099E+02 -0.23148054507E+02  0.72879654636E+02  0.77266020556E+02  0.47000000000E+01 0. -1.
         -5    1    4    4    0  502 -0.12887560381E+03  0.62342970305E+02  0.57239689252E+03  0.59004733689E+03  0.47000000000E+01 0.  1.
          5    1    3    3  503    0  0.74360761955E+02  0.11412575528E+02  0.79497538081E+02  0.10955235442E+03  0.47000000000E+01 0.  1.
         -5    1    3    3    0  503  0.64548357955E+02 -0.50607491326E+02  0.22851973778E+03  0.24283938982E+03  0.47000000000E+01 0. -1.
<mgrwt>
<rscale>  0 0.17090884E+03</rscale>
<asrwt>0</asrwt>
<pdfrwt beam="1">  1        1 0.15176913E+00 0.17118791E+03</pdfrwt>
<pdfrwt beam="2">  1       -1 0.51085606E-02 0.17118791E+03</pdfrwt>
<totfact> 0.27647223E+03</totfact>
</mgrwt>
</event>
<event>
 8    1  0.1893090E-003  0.9586365E+02  0.7546771E-02  0.1292520E+00
         -3   -1    0    0    0  501 -0.00000000000E+00  0.00000000000E+00  0.25692585381E+03  0.25692585381E+03  0.00000000000E+00 0.  1.
          3   -1    0    0  501    0  0.00000000000E+00 -0.00000000000E+00 -0.43005749302E+02  0.43005749302E+02  0.00000000000E+00 0. -1.
         23    2    1    2    0    0 -0.80716748538E+01 -0.32338210380E+02  0.39691763168E+02  0.10375584947E+03  0.89882859600E+02 0.  0.
         23    2    1    2    0    0  0.80716748538E+01  0.32338210380E+02  0.17422834134E+03  0.19617575365E+03  0.83776485998E+02 0.  0.
          5    1    4    4  502    0  0.32790739597E+02  0.45230272949E+02  0.79227373337E+02  0.97057080526E+02  0.47000000000E+01 0. -1.
         -5    1    3    3    0  503  0.15180135679E+02 -0.54209232942E+02  0.43456026711E+02  0.71271268495E+02  0.47000000000E+01 0.  1.
          5    1    3    3  503    0 -0.23251810532E+02  0.21871022562E+02 -0.37642635423E+01  0.32484580973E+02  0.47000000000E+01 0. -1.
         -5    1    4    4    0  502 -0.24719064744E+02 -0.12892062569E+02  0.95000968004E+02  0.99118673119E+02  0.47000000000E+01 0.  1.
<mgrwt>
<rscale>  0 0.94405625E+02</rscale>
<asrwt>0</asrwt>
<pdfrwt beam="1">  1        3 0.66162693E-02 0.95863654E+02</pdfrwt>
<pdfrwt beam="2">  1       -3 0.39527053E-01 0.95863654E+02</pdfrwt>
<totfact> 0.19847858E+03</totfact>
</mgrwt>
</event>
<event>
 8    1  0.1893090E-003  0.1222534E+03  0.7546771E-02  0.1239464E+00
          2   -1    0    0  501    0  0.00000000000E+00  0.00000000000E+00  0.23515005154E+03  0.23515005154E+03  0.00000000000E+00 0. -1.
         -2   -1    0    0    0  501 -0.00000000000E+00 -0.00000000000E+00 -0.63905743745E+02  0.63905743745E+02  0.00000000000E+00 0.  1.
         23    2    1    2    0    0  0.81575496206E+02 -0.50687490886E+01  0.97369079924E+02  0.15621517783E+03  0.90786509243E+02 0.  0.
         23    2    1    2    0    0 -0.81575496206E+02  0.50687490886E+01  0.73875227868E+02  0.14284061745E+03  0.90915559192E+02 0.  0.
          5    1    3    3  502    0  0.55584290587E+02  0.39260565994E+02  0.40097362532E+02  0.79125810481E+02  0.47000000000E+01 0. -1.
         -5    1    3    3    0  502  0.25991205619E+02 -0.44329315082E+02  0.57271717392E+02  0.77089367349E+02  0.47000000000E+01 0.  1.
          5    1    4    4  503    0 -0.70049652076E+02  0.42453707119E+02  0.42063881211E+02  0.92199409470E+02  0.47000000000E+01 0. -1.
         -5    1    4    4    0  503 -0.11525844130E+02 -0.37384958030E+02  0.31811346657E+02  0.50641207983E+02  0.47000000000E+01 0.  1.
<mgrwt>
<rscale>  0 0.12222940E+03</rscale>
<asrwt>0</asrwt>
<pdfrwt beam="1">  1        2 0.36176930E-01 0.12225340E+03</pdfrwt>
<pdfrwt beam="2">  1       -2 0.98316530E-02 0.12225340E+03</pdfrwt>
<totfact> 0.91244277E+03</totfact>
</mgrwt>
</event>
<event>
 8    1  0.1893090E-003  0.9524011E+02  0.7546771E-02  0.1291184E+00
         -2   -1    0    0    0  501 -0.00000000000E+00  0.00000000000E+00  0.19957455920E+03  0.19957455920E+03  0.00000000000E+00 0.  1.
          2   -1    0    0  501    0  0.00000000000E+00 -0.00000000000E+00 -0.73003879293E+02  0.73003879293E+02  0.00000000000E+00 0. -1.
         23    2    1    2    0    0 -0.17874568443E+02 -0.18812615558E+02 -0.21342820140E+02  0.96654924516E+02  0.90626948313E+02 0.  0.
         23    2    1    2    0    0  0.17874568443E+02  0.18812615558E+02  0.14791350005E+03  0.17592351398E+03  0.91636589702E+02 0.  0.
          5    1    4    4  502    0 -0.30658695146E+02 -0.14776444959E+02  0.70845513920E+02  0.78736749719E+02  0.47000000000E+01 0. -1.
         -5    1    3    3    0  503  0.57683876739E+00 -0.35899378141E+02 -0.47723916708E+02  0.59906262776E+02  0.47000000000E+01 0.  1.
          5    1    3    3  503    0 -0.18451407211E+02  0.17086762583E+02  0.26381096567E+02  0.36748661740E+02  0.47000000000E+01 0. -1.
         -5    1    4    4    0  502  0.48533263589E+02  0.33589060517E+02  0.77067986130E+02  0.97186764260E+02  0.47000000000E+01 0.  1.
<mgrwt>
<rscale>  0 0.94996420E+02</rscale>
<asrwt>0</asrwt>
<pdfrwt beam="1">  1        2 0.11231366E-01 0.95240114E+02</pdfrwt>
<pdfrwt beam="2">  1       -2 0.30703778E-01 0.95240114E+02</pdfrwt>
<totfact> 0.50321184E+03</totfact>
</mgrwt>
</event>
<event>
 8    1  0.1893090E-003  0.1070612E+03  0.7546771E-02  0.1266445E+00
         -1   -1    0    0    0  501 -0.00000000000E+00  0.00000000000E+00  0.15208321025E+02  0.15208321025E+02  0.00000000000E+00 0.  1.
          1   -1    0    0  501    0  0.00000000000E+00 -0.00000000000E+00 -0.88663830641E+03  0.88663830641E+03  0.00000000000E+00 0. -1.
         23    2    1    2    0    0  0.14550642747E+02  0.53672525414E+02 -0.25672511217E+03  0.27788815016E+03  0.90672926448E+02 0.  0.
         23    2    1    2    0    0 -0.14550642747E+02 -0.53672525414E+02 -0.61470487322E+03  0.62395847728E+03  0.91485731255E+02 0.  0.
          5    1    3    3  502    0  0.35380573862E+02  0.50446025037E+01 -0.18589857720E+03  0.18936104147E+03  0.47000000000E+01 0. -1.
         -5    1    4    4    0  503 -0.14553016546E+02  0.24078989874E+02 -0.13618802355E+03  0.13914329234E+03  0.47000000000E+01 0.  1.
          5    1    4    4  503    0  0.23737991752E-02 -0.77751515288E+02 -0.47851684967E+03  0.48481518494E+03  0.47000000000E+01 0. -1.
         -5    1    3    3    0  502 -0.20829931115E+02  0.48627922910E+02 -0.70826534967E+02  0.88527108686E+02  0.47000000000E+01 0.  1.
<mgrwt>
<rscale>  0 0.10688735E+03</rscale>
<asrwt>0</asrwt>
<pdfrwt beam="1">  1        1 0.13640589E+00 0.10706120E+03</pdfrwt>
<pdfrwt beam="2">  1       -1 0.23397417E-02 0.10706120E+03</pdfrwt>
<totfact> 0.10095209E+04</totfact>
</mgrwt>
</event>
<event>
 8    1  0.1893090E-003  0.9946996E+02  0.7546771E-02  0.1284054E+00
          3   -1    0    0  501    0  0.00000000000E+00  0.00000000000E+00  0.18435242090E+03  0.18435242090E+03  0.00000000000E+00 0. -1.
         -3   -1    0    0    0  501 -0.00000000000E+00 -0.00000000000E+00 -0.56998212603E+02  0.56998212603E+02  0.00000000000E+00 0.  1.
         23    2    1    2    0    0 -0.81192343786E+01 -0.25139963646E+02  0.10396301017E+03  0.14388391387E+03  0.95897515335E+02 0.  0.
         23    2    1    2    0    0  0.81192343786E+01  0.25139963646E+02  0.23391198132E+02  0.97466719639E+02  0.90855234016E+02 0.  0.
          5    1    4    4  502    0 -0.27694418030E+02  0.39315359558E+02 -0.61354154203E+01  0.48707408159E+02  0.47000000000E+01 0. -1.
         -5    1    4    4    0  502  0.35813652409E+02 -0.14175395912E+02  0.29526613552E+02  0.48759311480E+02  0.47000000000E+01 0.  1.
          5    1    3    3  503    0 -0.43233579336E+02 -0.33440497596E+02  0.32691090251E+02  0.63860838105E+02  0.47000000000E+01 0. -1.
         -5    1    3    3    0  503  0.35114344958E+02  0.83005339503E+01  0.71271919917E+02  0.80023075761E+02  0.47000000000E+01 0.  1.
<mgrwt>
<rscale>  0 0.98234195E+02</rscale>
<asrwt>0</asrwt>
<pdfrwt beam="1">  1        3 0.28361911E-01 0.99469961E+02</pdfrwt>
<pdfrwt beam="2">  1       -3 0.87689559E-02 0.99469961E+02</pdfrwt>
<totfact> 0.23592223E+03</totfact>
</mgrwt>
</event>
<event>
 8    1  0.1893090E-003  0.1024927E+03  0.7546771E-02  0.1275484E+00
         -3   -1    0    0    0  501 -0.00000000000E+00  0.00000000000E+00  0.24529783810E+03  0.24529783810E+03  0.00000000000E+00 0.  1.
          3   -1    0    0  501    0  0.00000000000E+00 -0.00000000000E+00 -0.65228021211E+02  0.65228021211E+02  0.00000000000E+00 0. -1.
         23    2    1    2    0    0  0.32312004081E+02  0.35091071707E+02 -0.17212299070E+01  0.10183291119E+03  0.89952933512E+02 0.  0.
         23    2    1    2    0    0 -0.32312004081E+02 -0.35091071707E+02  0.18179104680E+03  0.20869294812E+03  0.90715560846E+02 0.  0.
          5    1    3    3  502    0  0.20440604909E+02  0.64798624108E+02 -0.89660153182E+01  0.68696138508E+02  0.47000000000E+01 0. -1.
         -5    1    3    3    0  502  0.11871399173E+02 -0.29707552401E+02  0.72447854112E+01  0.33136772680E+02  0.47000000000E+01 0.  1.
          5    1    4    4  503    0  0.29108579825E+02  0.36537268897E+01  0.51399578926E+02  0.59368896346E+02  0.47000000000E+01 0. -1.
         -5    1    4    4    0  503 -0.61420583906E+02 -0.38744798596E+02  0.13039146787E+03  0.14932405178E+03  0.47000000000E+01 0.  1.
<mgrwt>
<rscale>  0 0.10232373E+03</rscale>
<asrwt>0</asrwt>
<pdfrwt beam="1">  1        3 0.10035080E-01 0.10249274E+03</pdfrwt>
<pdfrwt beam="2">  1       -3 0.37738129E-01 0.10249274E+03</pdfrwt>
<totfact> 0.11191455E+03</totfact>
</mgrwt>
</event>
<event>
 8    1  0.1893090E-003  0.1007506E+03  0.7546771E-02  0.1279573E+00
          2   -1    0    0  501    0  0.00000000000E+00  0.00000000000E+00  0.48476999488E+03  0.48476999488E+03  0.00000000000E+00 0. -1.
         -2   -1    0    0    0  501 -0.00000000000E+00 -0.00000000000E+00 -0.22902783097E+02  0.22902783097E+02  0.00000000000E+00 0.  1.
         23    2    1    2    0    0 -0.13361561908E+02  0.33144312563E+02  0.31300658869E+03  0.32882185980E+03  0.94199862666E+02 0.  0.
         23    2    1    2    0    0  0.13361561908E+02 -0.33144312563E+02  0.14886062309E+03  0.17885091818E+03  0.92472098675E+02 0.  0.
          5    1    4    4  502    0  0.73227858173E+01 -0.64997645505E+02  0.10956909678E+03  0.12769414271E+03  0.47000000000E+01 0. -1.
         -5    1    4    4    0  502  0.60387760907E+01  0.31853332942E+02  0.39291526312E+02  0.51156775466E+02  0.47000000000E+01 0.  1.
          5    1    3    3  503    0 -0.72006818054E+01 -0.32938940873E+02  0.97031105808E+02  0.10282970942E+03  0.47000000000E+01 0. -1.
         -5    1    3    3    0  503 -0.61608801027E+01  0.66083253436E+02  0.21597548288E+03  0.22599215038E+03  0.47000000000E+01 0.  1.
<mgrwt>
<rscale>  0 0.10034481E+03</rscale>
<asrwt>0</asrwt>
<pdfrwt beam="1">  1        2 0.74579991E-01 0.10075064E+03</pdfrwt>
<pdfrwt beam="2">  1       -2 0.35235055E-02 0.10075064E+03</pdfrwt>
<totfact> 0.19627529E+04</totfact>
</mgrwt>
</event>
<event>
 8    1  0.1893090E-003  0.9293167E+02  0.7546771E-02  0.1296243E+00
          3   -1    0    0  501    0  0.00000000000E+00  0.00000000000E+00  0.15710480395E+03  0.15710480395E+03  0.00000000000E+00 0. -1.
         -3   -1    0    0    0  501 -0.00000000000E+00 -0.00000000000E+00 -0.12585296923E+03  0.12585296923E+03  0.00000000000E+00 0.  1.
         23    2    1    2    0    0 -0.23738588014E+01 -0.13493416140E+02  0.12208103277E+03  0.15342774748E+03  0.91916199063E+02 0.  0.
         23    2    1    2    0    0  0.23738588014E+01  0.13493416140E+02 -0.90829198056E+02  0.12953002569E+03  0.91325663709E+02 0.  0.
          5    1    3    3  502    0 -0.30042774049E+02 -0.40561350325E+02  0.88397478969E+02  0.10190189253E+03  0.47000000000E+01 0. -1.
         -5    1    3    3    0  502  0.27668915248E+02  0.27067934185E+02  0.33683553804E+02  0.51525854955E+02  0.47000000000E+01 0.  1.
          5    1    4    4  503    0 -0.31724941462E+02 -0.18950264302E+02 -0.15001648545E+02  0.40158733632E+02  0.47000000000E+01 0. -1.
         -5    1    4    4    0  503  0.34098800263E+02  0.32443680442E+02 -0.75827549510E+02  0.89371292061E+02  0.47000000000E+01 0.  1.
<mgrwt>
<rscale>  0 0.92785313E+02</rscale>
<asrwt>0</asrwt>
<pdfrwt beam="1">  1        3 0.24169970E-01 0.92931669E+02</pdfrwt>
<pdfrwt beam="2">  1       -3 0.19361995E-01 0.92931669E+02</pdfrwt>
<totfact> 0.82306932E+02</totfact>
</mgrwt>
</event>
<event>
 8    1  0.1893090E-003  0.1304070E+03  0.7546771E-02  0.1227887E+00
          2   -1    0    0  501    0  0.00000000000E+00  0.00000000000E+00  0.38454807308E+03  0.38454807308E+03  0.00000000000E+00 0. -1.
         -2   -1    0    0    0  501 -0.00000000000E+00 -0.00000000000E+00 -0.64512274203E+02  0.64512274203E+02  0.00000000000E+00 0.  1.
         23    2    1    2    0    0  0.90256600038E+02  0.33346180488E+01  0.28764203481E+03  0.31469013318E+03  0.90191830026E+02 0.  0.
         23    2    1    2    0    0 -0.90256600038E+02 -0.33346180488E+01  0.32393764068E+02  0.13437021410E+03  0.94067130072E+02 0.  0.
          5    1    4    4  502    0 -0.18171132056E+02  0.12971571947E+02  0.52830067366E+02  0.57546135725E+02  0.47000000000E+01 0. -1.
         -5    1    3    3    0  503  0.17898130151E+02  0.21297687274E+02  0.18826171002E+03  0.19036411428E+03  0.47000000000E+01 0.  1.
          5    1    3    3  503    0  0.72358469886E+02 -0.17963069225E+02  0.99380324796E+02  0.12432601891E+03  0.47000000000E+01 0. -1.
         -5    1    4    4    0  502 -0.72085467982E+02 -0.16306189996E+02 -0.20436303298E+02  0.76824078379E+02  0.47000000000E+01 0.  1.
<mgrwt>
<rscale>  0 0.12970968E+03</rscale>
<asrwt>0</asrwt>
<pdfrwt beam="1">  1        2 0.59161241E-01 0.13040705E+03</pdfrwt>
<pdfrwt beam="2">  1       -2 0.99249655E-02 0.13040705E+03</pdfrwt>
<totfact> 0.53621062E+03</totfact>
</mgrwt>
</event>
<event>
 8    1  0.1893090E-003  0.9541948E+02  0.7546771E-02  0.1290672E+00
         -2   -1    0    0    0  501 -0.00000000000E+00  0.00000000000E+00  0.14044024943E+02  0.14044024943E+02  0.00000000000E+00 0. -1.
          2   -1    0    0  501    0  0.00000000000E+00 -0.00000000000E+00 -0.64488548815E+03  0.64488548815E+03  0.00000000000E+00 0.  1.
         23    2    1    2    0    0  0.27601857482E+02 -0.96710199330E+01 -0.29647108047E+03  0.31121061671E+03  0.90008639774E+02 0.  0.
         23    2    1    2    0    0 -0.27601857482E+02  0.96710199330E+01 -0.33437038274E+03  0.34771889638E+03  0.90826685993E+02 0.  0.
          5    1    4    4  502    0  0.18515781855E+02 -0.82641191788E+01 -0.18150232250E+02  0.27616132500E+02  0.47000000000E+01 0. -1.
         -5    1    4    4    0  502 -0.46117639337E+02  0.17935139112E+02 -0.31622015049E+03  0.32010276388E+03  0.47000000000E+01 0.  1.
          5    1    3    3  503    0  0.41056639679E+02  0.24931506992E+02 -0.97970648208E+02  0.10921339484E+03  0.47000000000E+01 0. -1.
         -5    1    3    3    0  503 -0.13454782197E+02 -0.34602526925E+02 -0.19850043226E+03  0.20199722187E+03  0.47000000000E+01 0.  1.
<mgrwt>
<rscale>  0 0.95224302E+02</rscale>
<asrwt>0</asrwt>
<pdfrwt beam="1">  1        2 0.99213148E-01 0.95419485E+02</pdfrwt>
<pdfrwt beam="2">  1       -2 0.21606193E-02 0.95419485E+02</pdfrwt>
<totfact> 0.28969881E+04</totfact>
</mgrwt>
</event>
<event>
 8    1  0.1893090E-003  0.1154147E+03  0.7546771E-02  0.1250885E+00
          1   -1    0    0  501    0  0.00000000000E+00  0.00000000000E+00  0.16095569792E+02  0.16095569792E+02  0.00000000000E+00 0. -1.
         -1   -1    0    0    0  501 -0.00000000000E+00 -0.00000000000E+00 -0.84451718501E+03  0.84451718501E+03  0.00000000000E+00 0.  1.
         23    2    1    2    0    0  0.27244601534E+02  0.65733473851E+02 -0.47600786659E+03  0.48980001221E+03  0.90870264722E+02 0.  0.
         23    2    1    2    0    0 -0.27244601534E+02 -0.65733473851E+02 -0.35241374864E+03  0.37081274260E+03  0.90793622837E+02 0.  0.
          5    1    4    4  502    0 -0.50974255101E+02 -0.96705798603E+01 -0.12685403335E+03  0.13713471688E+03  0.47000000000E+01 0. -1.
         -5    1    3    3    0  503  0.44257549195E+02  0.37908252399E+02 -0.42547695949E+03  0.42947467832E+03  0.47000000000E+01 0.  1.
          5    1    3    3  503    0 -0.17012947661E+02  0.27825221452E+02 -0.50530907099E+02  0.60325333892E+02  0.47000000000E+01 0. -1.
         -5    1    4    4    0  502  0.23729653568E+02 -0.56062893990E+02 -0.22555971529E+03  0.23367802571E+03  0.47000000000E+01 0.  1.
<mgrwt>
<rscale>  0 0.11539966E+03</rscale>
<asrwt>0</asrwt>
<pdfrwt beam="1">  1        1 0.24762424E-02 0.11541474E+03</pdfrwt>
<pdfrwt beam="2">  1       -1 0.12992567E+00 0.11541474E+03</pdfrwt>
<totfact> 0.23351479E+03</totfact>
</mgrwt>
</event>
<event>
 8    1  0.1893090E-003  0.1093062E+03  0.7546771E-02  0.1272548E+00
          1   -1    0    0  501    0  0.00000000000E+00  0.00000000000E+00  0.26696840096E+02  0.26696840096E+02  0.00000000000E+00 0. -1.
         -1   -1    0    0    0  501 -0.00000000000E+00 -0.00000000000E+00 -0.44781063340E+03  0.44781063340E+03  0.00000000000E+00 0.  1.
         23    2    1    2    0    0  0.39451707773E+02  0.63092082884E+01 -0.32842711206E+03  0.34613900965E+03  0.10174282633E+03 0.  0.
         23    2    1    2    0    0 -0.39451707773E+02 -0.63092082884E+01 -0.92686681244E+02  0.12836846385E+03  0.79318335050E+02 0.  0.
          5    1    3    3  502    0 -0.27077411553E+02  0.23759895532E+02 -0.72552471753E+02  0.81139817658E+02  0.47000000000E+01 0. -1.
         -5    1    3    3    0  502  0.66529119325E+02 -0.17450687244E+02 -0.25587464031E+03  0.26499919199E+03  0.47000000000E+01 0.  1.
          5    1    4    4  503    0 -0.53087606496E+02  0.18578679577E+02 -0.42994831386E+02  0.70951439902E+02  0.47000000000E+01 0. -1.
         -5    1    4    4    0  503  0.13635898724E+02 -0.24887887865E+02 -0.49691849858E+02  0.57417023945E+02  0.47000000000E+01 0.  1.
<mgrwt>
<rscale>  0 0.10377721E+03</rscale>
<asrwt>0</asrwt>
<pdfrwt beam="1">  1        1 0.41072064E-02 0.10930620E+03</pdfrwt>
<pdfrwt beam="2">  1       -1 0.68893939E-01 0.10930620E+03</pdfrwt>
<totfact> 0.45655560E+03</totfact>
</mgrwt>
</event>
<event>
 8    1  0.1893090E-003  0.1364576E+03  0.7546771E-02  0.1220346E+00
         -2   -1    0    0    0  501 -0.00000000000E+00  0.00000000000E+00  0.14330420278E+03  0.14330420278E+03  0.00000000000E+00 0.  1.
          2   -1    0    0  501    0  0.00000000000E+00 -0.00000000000E+00 -0.20127668289E+03  0.20127668289E+03  0.00000000000E+00 0. -1.
         23    2    1    2    0    0  0.46423930452E+02 -0.89378102505E+02  0.77198317725E+02  0.15678088796E+03  0.92070842522E+02 0.  0.
         23    2    1    2    0    0 -0.46423930452E+02  0.89378102505E+02 -0.13517079783E+03  0.18779999771E+03  0.82789298976E+02 0.  0.
          5    1    3    3  502    0  0.70781578063E+02 -0.78801220396E+02  0.74697282357E+02  0.12969748695E+03  0.47000000000E+01 0. -1.
         -5    1    4    4    0  503 -0.59107546728E+02  0.65648450998E+02 -0.57602301984E+02  0.10556294990E+03  0.47000000000E+01 0.  1.
          5    1    4    4  503    0  0.12683616276E+02  0.23729651507E+02 -0.77568495851E+02  0.82237047801E+02  0.47000000000E+01 0. -1.
         -5    1    3    3    0  502 -0.24357647611E+02 -0.10576882109E+02  0.25010353682E+01  0.27083401009E+02  0.47000000000E+01 0.  1.
<mgrwt>
<rscale>  0 0.13491088E+03</rscale>
<asrwt>0</asrwt>
<pdfrwt beam="1">  1        2 0.30965643E-01 0.13645756E+03</pdfrwt>
<pdfrwt beam="2">  1       -2 0.22046801E-01 0.13645756E+03</pdfrwt>
<totfact> 0.29052827E+03</totfact>
</mgrwt>
</event>
<event>
 8    1  0.1893090E-003  0.9979213E+02  0.7546771E-02  0.1282325E+00
          3   -1    0    0  501    0  0.00000000000E+00  0.00000000000E+00  0.56565226389E+03  0.56565226389E+03  0.00000000000E+00 0. -1.
         -3   -1    0    0    0  501 -0.00000000000E+00 -0.00000000000E+00 -0.33126691590E+02  0.33126691590E+02  0.00000000000E+00 0.  1.
         23    2    1    2    0    0 -0.37183206946E+02  0.33827561922E+01  0.47666213452E+03  0.48699616062E+03  0.92544238381E+02 0.  0.
         23    2    1    2    0    0  0.37183206946E+02 -0.33827561922E+01  0.55863437779E+02  0.11178279486E+03  0.89334403381E+02 0.  0.
          5    1    4    4  502    0  0.10068823687E+02  0.24526873710E+02 -0.14984956592E+02  0.30815380388E+02  0.47000000000E+01 0. -1.
         -5    1    3    3    0  503 -0.22193129640E+01 -0.38190303703E+02  0.11599002578E+03  0.12222602312E+03  0.47000000000E+01 0.  1.
          5    1    3    3  503    0 -0.34963893982E+02  0.41573059895E+02  0.36067210874E+03  0.36477013751E+03  0.47000000000E+01 0. -1.
         -5    1    4    4    0  502  0.27114383259E+02 -0.27909629902E+02  0.70848394371E+02  0.80967414469E+02  0.47000000000E+01 0.  1.
<mgrwt>
<rscale>  0 0.99041390E+02</rscale>
<asrwt>0</asrwt>
<pdfrwt beam="1">  1        3 0.87023418E-01 0.99792134E+02</pdfrwt>
<pdfrwt beam="2">  1       -3 0.50964145E-02 0.99792134E+02</pdfrwt>
<totfact> 0.60494663E+02</totfact>
</mgrwt>
</event>
<event>
 8    1  0.1893090E-003  0.1014206E+03  0.7546771E-02  0.1278350E+00
         -2   -1    0    0    0  501 -0.00000000000E+00  0.00000000000E+00  0.11124637171E+03  0.11124637171E+03  0.00000000000E+00 0. -1.
          2   -1    0    0  501    0  0.00000000000E+00 -0.00000000000E+00 -0.92132123727E+02  0.92132123727E+02  0.00000000000E+00 0.  1.
         23    2    1    2    0    0  0.25508412274E+02  0.31642406166E+02 -0.32126683336E+01  0.99529439595E+02  0.90795744083E+02 0.  0.
         23    2    1    2    0    0 -0.25508412274E+02 -0.31642406166E+02  0.22326916321E+02  0.10384905585E+03  0.92920472680E+02 0.  0.
          5    1    3    3  502    0 -0.27408606015E+02  0.64023605733E+01 -0.23857269297E+02  0.37195177146E+02  0.47000000000E+01 0. -1.
         -5    1    3    3    0  502  0.52917018289E+02  0.25240045592E+02  0.20644600964E+02  0.62334262449E+02  0.47000000000E+01 0.  1.
          5    1    4    4  503    0 -0.40767368812E+02 -0.53200235607E+02 -0.25862078937E+01  0.67238544747E+02  0.47000000000E+01 0. -1.
         -5    1    4    4    0  503  0.15258956538E+02  0.21557829441E+02  0.24913124215E+02  0.36610511100E+02  0.47000000000E+01 0.  1.
<mgrwt>
<rscale>  0 0.10093130E+03</rscale>
<asrwt>0</asrwt>
<pdfrwt beam="1">  1        2 0.14174173E-01 0.10142059E+03</pdfrwt>
<pdfrwt beam="2">  1       -2 0.17114826E-01 0.10142059E+03</pdfrwt>
<totfact> 0.10459699E+04</totfact>
</mgrwt>
</event>
<event>
 8    1  0.1893090E-003  0.1173855E+03  0.7546771E-02  0.1252018E+00
         -2   -1    0    0    0  501 -0.00000000000E+00  0.00000000000E+00  0.50057560024E+03  0.50057560024E+03  0.00000000000E+00 0.  1.
          2   -1    0    0  501    0  0.00000000000E+00 -0.00000000000E+00 -0.25460056788E+02  0.25460056788E+02  0.00000000000E+00 0. -1.
         23    2    1    2    0    0  0.19257269132E+02  0.63515793601E+02  0.19976748268E+03  0.22670991126E+03  0.84173857416E+02 0.  0.
         23    2    1    2    0    0 -0.19257269132E+02 -0.63515793601E+02  0.27534806076E+03  0.29932574577E+03  0.96820705753E+02 0.  0.
          5    1    3    3  502    0 -0.62383359870E+01  0.76600494177E+02  0.12924609622E+03  0.15044333130E+03  0.47000000000E+01 0. -1.
         -5    1    4    4    0  503  0.30986973474E+02 -0.39826388084E+02  0.19536844119E+03  0.20183471338E+03  0.47000000000E+01 0.  1.
          5    1    4    4  503    0 -0.50244242606E+02 -0.23689405517E+02  0.79979619574E+02  0.97491032387E+02  0.47000000000E+01 0. -1.
         -5    1    3    3    0  502  0.25495605119E+02 -0.13084700576E+02  0.70521386465E+02  0.76266579958E+02  0.47000000000E+01 0.  1.
<mgrwt>
<rscale>  0 0.11474991E+03</rscale>
<asrwt>0</asrwt>
<pdfrwt beam="1">  1        2 0.39169322E-02 0.11738547E+03</pdfrwt>
<pdfrwt beam="2">  1       -2 0.77011624E-01 0.11738547E+03</pdfrwt>
<totfact> 0.31860081E+03</totfact>
</mgrwt>
</event>
<event>
 8    1  0.1893090E-003  0.1056797E+03  0.7546771E-02  0.1270431E+00
         -2   -1    0    0    0  501 -0.00000000000E+00  0.00000000000E+00  0.24128999420E+02  0.24128999420E+02  0.00000000000E+00 0.  1.
          2   -1    0    0  501    0  0.00000000000E+00 -0.00000000000E+00 -0.49514521210E+03  0.49514521210E+03  0.00000000000E+00 0. -1.
         23    2    1    2    0    0 -0.41827715093E+02  0.28336868922E+02 -0.15919337965E+03  0.19107782113E+03  0.92820610377E+02 0.  0.
         23    2    1    2    0    0  0.41827715093E+02 -0.28336868922E+02 -0.31182283302E+03  0.32819639039E+03  0.89032890436E+02 0.  0.
          5    1    3    3  502    0 -0.20443094559E+01 -0.30579603668E+02 -0.27954392548E+02  0.41747208582E+02  0.47000000000E+01 0. -1.
         -5    1    4    4    0  503  0.25047049902E+01 -0.51450315874E+02 -0.11491048376E+03  0.12601554598E+03  0.47000000000E+01 0.  1.
          5    1    4    4  503    0  0.39323010102E+02  0.23113446952E+02 -0.19691234926E+03  0.20218084441E+03  0.47000000000E+01 0. -1.
         -5    1    3    3    0  502 -0.39783405637E+02  0.58916472590E+02 -0.13123898710E+03  0.14933061254E+03  0.47000000000E+01 0.  1.
<mgrwt>
<rscale>  0 0.10484210E+03</rscale>
<asrwt>0</asrwt>
<pdfrwt beam="1">  1        2 0.76176182E-01 0.10567971E+03</pdfrwt>
<pdfrwt beam="2">  1       -2 0.37121540E-02 0.10567971E+03</pdfrwt>
<totfact> 0.17847414E+04</totfact>
</mgrwt>
</event>
<event>
 8    1  0.1893090E-003  0.1214184E+03  0.7546771E-02  0.1244255E+00
         -3   -1    0    0    0  501 -0.00000000000E+00  0.00000000000E+00  0.55155630190E+02  0.55155630190E+02  0.00000000000E+00 0.  1.
          3   -1    0    0  501    0  0.00000000000E+00 -0.00000000000E+00 -0.40692332216E+03  0.40692332216E+03  0.00000000000E+00 0. -1.
         23    2    1    2    0    0 -0.62772935372E+02  0.81230778075E+01 -0.28412757297E+02  0.11667941927E+03  0.93810320840E+02 0.  0.
         23    2    1    2    0    0  0.62772935372E+02 -0.81230778075E+01 -0.32335493467E+03  0.34539953308E+03  0.10361466047E+03 0.  0.
          5    1    3    3  502    0 -0.33257461290E+01 -0.33866579466E+02  0.78364277628E+01  0.35235002371E+02  0.47000000000E+01 0. -1.
         -5    1    3    3    0  502 -0.59447189243E+02  0.41989657273E+02 -0.36249185060E+02  0.81444416901E+02  0.47000000000E+01 0. -1.
          5    1    4    4  503    0 -0.31036874523E+01  0.25906541988E+02 -0.19734475690E+03  0.19911761567E+03  0.47000000000E+01 0. -1.
         -5    1    4    4    0  503  0.65876622825E+02 -0.34029619796E+02 -0.12601017777E+03  0.14628191740E+03  0.47000000000E+01 0.  1.
<mgrwt>
<rscale>  0 0.11930082E+03</rscale>
<asrwt>0</asrwt>
<pdfrwt beam="1">  1        3 0.62603587E-01 0.12141838E+03</pdfrwt>
<pdfrwt beam="2">  1       -3 0.84854816E-02 0.12141838E+03</pdfrwt>
<totfact> 0.55642481E+02</totfact>
</mgrwt>
</event>
